# vtk DataFile Version 4.2
vtk output
ASCII
DATASET POLYDATA
POINTS 320 double
33.640879623996  26.36798297052  39.30332214641 33.614618537331 26.363227942707 39.277981210324 33.596215345056  26.36017795315  39.26083250615 
33.582719823991 26.356923438771 39.246058125192 33.568553686201  26.35401751933 39.231651957414 33.546273947085 26.349522378095 39.209157011835 
33.511524938835 26.344746666903 39.178900832355 33.505079955136 26.343447064425  39.17239517585  33.50050660994 26.342782203742 39.168334665916 
33.462199552066 26.337272678483 39.134451624487 33.431274118567 26.334097552426 39.109847054321 33.417653173535 26.332697017388 39.099005634411 
33.383856086797 26.329519039495 39.072747083454 33.371446428355 26.327976900773  39.06229483781 33.367026521887 26.327409824599 39.058533606832 
33.322121859592 26.322454544301 39.022061978894 33.306984206497 26.320730734968 39.009651906001 33.265809568842 26.317522262329 38.979094073399 
33.244859902695 26.315705633739  38.96314842803 33.192606799547 26.315107314615 38.931871924324 33.190802445919 26.315050069469 38.930712885028 
33.189723213028 26.315070238147  38.93013716452  33.13848904993  26.31453988131 38.899592162808  33.11299582703 26.315196126035 38.886381176263 
33.087277480112 26.315540021111 38.872366276421 33.041740054916 26.317977275088 38.851500771695 33.035162075775 26.318300832374 38.848425119332 
33.018530940345 26.319752392644 38.842017427331 32.981191841419 26.322480981942 38.826485646948  32.96577916961 26.324254270612 38.821472129032 
32.926623889294 26.328658981931 38.808518910296 32.885800611592 26.335026424282 38.798848412107  32.87212161049 26.337186925152  38.79566616279 
32.844575512259 26.342634303001 38.791626907381 32.817842765421 26.347558630641 38.786924488129 32.804987796583 26.350445110752 38.785783334423 
 32.76398201776 26.359973833623 38.782837053153 32.726534984751 26.370151165668 38.783333975272 32.710520440954 26.374633736953 38.783827632087 
32.674945166742 26.385913352106 38.787779743981 32.657363459414 26.391238411257 38.789194053364 32.649845042892 26.393799596736 38.790412439931 
32.604387096744 26.409598453097 38.798456030655 32.572717973893 26.421754660801 38.806543180699 32.551649282413 26.429972586515 38.812205696147 
32.509132290484  26.44788092315 38.826493734288 32.498009877543 26.452378517802 38.829827060882 32.492437435488 26.454759856848 38.831773591137 
32.443651917843 26.476064530141 38.849801310046 32.406799340798 26.493114900512 38.865486356002 32.389943256932 26.500982975796 38.872810421562 
32.369071972912 26.511263175237  38.88304109983  32.33675375746 26.526038654352 38.896413887785 32.305878364512 26.540761936792 38.910501845992 
 32.28451101873  26.55080887162 38.919943978735 32.264260817793 26.560648662896 38.929579687033 32.233215869167 26.574253897504 38.941155163883 
32.198703564085 26.589805147692 38.954944739479 32.181865639437 26.597267298347  38.96140235427  32.16729321452 26.603789996883 38.967130577375 
32.129458729425 26.619223562502 38.978759590047 32.073980501027 26.642113870182 38.996372136788 32.070032825638 26.643590818105 38.997297346191 
32.066609519935 26.644872714941  38.99810210513 32.008312111613 26.666688294255 39.011775333436 31.986265563897 26.674716052686 39.016465936733 
31.954091994725 26.686369986691 39.023178621502 31.916877115995 26.699597270022  39.03039720792 31.903203810231 26.704452654985 39.033039665941 
31.856524535598 26.720655195435 39.041254461415  31.85527219768 26.721099777684   39.0414962197 31.844908107658 26.724677906548 39.043278476189 
31.805928330436 26.737924577308 39.049526203853 31.801775605081 26.739284823953 39.050081654935 31.770952858665 26.749837343311 39.055190216967 
31.752304368679  26.75612354219 39.058068618483 31.748807484921 26.757437169821 39.058899700934 31.703382439674 26.772774099807 39.065964326059 
31.653098835898 26.792532798992 39.079792823949 31.649071244857 26.794180144919 39.081040266569 31.638508766771 26.798736044244 39.084820845275 
31.592248361175 26.817698918762  39.09923882044 31.575232141433  26.82488441198 39.104996495105  31.53666556306 26.842907140429 39.121798477996 
31.506608835005 26.857012440929 39.135021251585 31.482403338731 26.869965830227 39.149113258331 31.447329180916 26.888120827491 39.168204996685 
31.428398073258  26.90007651396 39.183168348892 31.399595660993 26.917205578055 39.203642756259 31.375605970243  26.93678388765 39.232169628544 
31.364453291994 26.944700220617 39.242870684055 31.351797333128 26.957499816118 39.263257856984 31.337112622543 26.971268453314  39.28457419188 
31.328321240561 26.983623392616 39.306218409243 31.317170831878 26.996592756379 39.327836231587 31.312355657516 27.006833915698 39.347195939049 
31.303691693164 27.021101126759 39.373044125963 31.298303458561 27.043430094707 39.418186860986 31.297801132153  27.04460698159 39.420440904077 
31.297605267717 27.047391794987 39.426344215438 31.294281391577  27.06770537638 39.468317925468 31.295745004446 27.074440494606 39.483706858945 
31.295121648342 27.090214923044 39.517424794125 31.299138739416 27.102615639169  39.54651769253 31.299589768075 27.112243608885 39.567574666794 
31.306203661456 27.129038472873 39.607649827425  31.30672875026 27.133939043687 39.618537258636  31.31537719389 27.154437009742 39.667779263942 
31.315553886772 27.155423186329 39.670010974947 31.318488158721  27.16181065641 39.685492823091 31.324639304052 27.176957371574 39.721742147428 
31.326078239501 27.179059254822 39.727108291165 31.334257972815 27.198517551375 39.773835464771 31.337348532115 27.203356778932  39.78606250905 
31.343924170042 27.220186000862 39.826189937225  31.34833031106 27.227788434321 39.845140919124 31.353202344768 27.241951085314 39.878530502574 
31.358627523707 27.252592980531 39.904632021315 31.362022398416 27.263682613597 39.930535700149 31.368472653546 27.277858718548 39.964859966138 
31.370521632083 27.285251286807 39.982005007335 31.378117830375 27.303713986415 40.026246664929  31.37882017084 27.306590983121 40.032864519499 
31.383187435794 27.317551891201 40.059048108739 31.386802208628 27.327787251913 40.083232586666 31.388093450808 27.330154459872 40.089087130205 
31.395122007371 27.348914734316 40.133645877696 31.399537687989 27.356467938042 40.152495988467 31.405447303113 27.369871311337 40.184840782099 
31.413844940325 27.382428367376 40.216785060686 31.418455762662 27.390798540757 40.237511951114 31.433281891039 27.408292991548 40.283810714602 
31.436225618443 27.412280287589 40.294113176536 31.457676532495  27.43267378957 40.350475870807 31.459093792673 27.434078279398 40.354323080294 
31.459458114096 27.434330126988 40.355076172807 31.484580946133 27.454660390846 40.413409291766 31.498126422647 27.462139290446 40.437337777826 
 31.51629518415 27.473594388562 40.472508521705 31.548201350646 27.489472007548 40.525115551287 31.549266409746 27.490042936486 40.526960016786 
31.551545371476 27.491015897384 40.530369509446 31.582711363628 27.504401631727 40.577168886531 31.600338849642 27.510204202329 40.599818547829 
31.618860790457 27.516785439142 40.624663528227 31.648454829339 27.524942627324 40.659266272993 31.659439437798 27.528118634403 40.672430244839 
31.699225897726 27.537233731344 40.714950890859 31.700047039382 27.537421255258 40.715827166446 31.702139436896 27.537784406171 40.717812303941 
31.741901550212 27.544700319611 40.755568343431 31.758484254989 27.546950660062 40.769945022901 31.780500033816 27.549783116534 40.788696800881 
 31.80262745931 27.552180118435 40.806571983288 31.829161921975 27.554713421816 40.827270460381 31.847613738224 27.556254398088 40.841187323264 
31.888929854468 27.559410097959  40.87171234075 31.894414064941 27.559824290073 40.875754036365 31.910801174684 27.560973888288 40.887640675729 
31.941974711594 27.563200701949  40.91033908625 31.953807648758 27.563988440418 40.918830754434 31.988112864497 27.566288972407 40.943485438876 
32.019754382807 27.568336360157 40.966064795265 32.034662159769 27.569321068022 40.976746366531 32.060650512804 27.571026941245 40.995344073967 
32.083173138884 27.572497964695 41.011445749835 32.096905570707 27.573392226753 41.021257501803 32.133530156211 27.575847234887 41.047576790201 
32.173350308144  27.57859720494 41.076366939035 32.191794518464 27.579934389919 41.089839211246 32.238525344572 27.583351406473 41.124035804603 
32.251078093638 27.584319201449 41.133329472089 32.299192674769 27.588000908007 41.168891874221 32.308801466291 27.588775438469 41.176078745072 
32.356102161729 27.592430912533 41.211117454028 32.364303957736 27.593090786056 41.217249278854 32.410431834539  27.59647465351 41.251028278032 
32.418357081743 27.597067906394 41.256857500147 32.463060052435 27.599878091641  41.28857959782 32.471283477198 27.600393396132 41.294411538348 
32.515161859645 27.602450453872 41.324033576191 32.523333739875 27.602822190005 41.329525805552 32.568043656386 27.603925559101 41.357564855931 
 32.57519625905 27.604082258217  41.36200768149 32.623888867132 27.604011119983 41.389794942178 32.628669707289 27.603986770378 41.392485698035 
32.684015443249 27.601842438385 41.419612200509 32.684984750155 27.601800507844 41.420077833396 32.695397963408 27.600902891213 41.424114158336 
32.745574551635 27.596627729982 41.443671507351 32.750616118318 27.595986795682 41.445179939096 32.810265296776 27.587969940865 41.462090139142 
32.821855540609 27.585892617157 41.464253489543 32.879345421975 27.574834648399 41.473355276939 32.891725221777 27.572003176838 41.474342596245 
32.951226852561 27.557539834236  41.47724254531 32.958589812116 27.555541232584 41.477150237252 33.020726109021  27.53760548083 41.474060983395 
33.024067250418 27.536556415326 41.473712034672 33.084729928466 27.516421573067 41.465026749611 33.085793797175 27.516045967297 41.464825845109 
33.091672462606 27.513853978735 41.463464064275 33.139880000483 27.495940171731  41.45242957456  33.15196433713 27.491179464679 41.449079851207 
33.189098543352 27.476066144475 41.437740790777 33.235902195462 27.456215681199 41.421717189921 33.238975242113 27.454931541815 41.420706600014 
33.241664704601 27.453773226064 41.419747702648 33.289023895792 27.432789543318 41.401594922896 33.331158823835 27.413792622215 41.384736107544 
33.339497197786 27.409920968656 41.381157382178 33.351572986677 27.404326074222 41.376000757635   33.3890615937  27.38722353202 41.360567979592 
33.416662410995 27.374674254715 41.349297241023 33.437566575636 27.364927825126 41.340238470258 33.464001322719 27.352700477397 41.328994040302 
33.484639727754  27.34330499307 41.320540876119 33.502838751659 27.335047243972 41.313145654037 33.530614518743 27.322154713573 41.301233816618 
33.558467417219 27.309242855609 41.289324487903 33.575213863543 27.301599557933 41.282423070282 33.595988350466 27.292010302651 41.273629412534 
33.620236344519 27.280604678035 41.262905244881 33.636052419835 27.272999415422 41.255552121745 33.666700486624 27.258688510925  41.24222452986 
33.709824211824 27.238370120501 41.223078495129 33.714062834155 27.236417412422 41.221292509367 33.720032498112 27.233644778363 41.218728645809 
33.761472679014 27.213863157346 41.199776074289 33.800054089686 27.195112378288 41.181409880928  33.80860017743 27.191033908961 41.177503586857 
33.818550986519 27.186183039995 41.172734830478  33.85482746333 27.167961132027 41.154188470987 33.885864440595 27.151900388537 41.137304074711 
 33.90068926041 27.144336207088 41.129470889273  33.91762584305 27.135370784016 41.119822545173 33.947198338522 27.119229288282 41.101923356234 
33.972929541652 27.104702735435 41.085308515912 33.992258382156  27.09394703236 41.073165574044 34.015457218813 27.080694654429 41.057850053219 
34.034337825439 27.069538268137 41.044584355957 34.051319227154 27.059455221658  41.03254746047 34.074022464923 27.046182994961 41.016904676729 
34.089893135528 27.036922535668 41.006007356088 34.114651600385 27.021525279967 40.986953459954 34.141020657842  27.00534194781 40.967125690739 
34.158970663237 26.993414024532 40.951659333151 34.189966242622 26.973424985961 40.926265350797 34.204216988775 26.963417647257 40.912825085241 
34.237100803491 26.941082433964 40.883446451877 34.247758362413 26.933039448656 40.872187693507  34.28097209995 26.908893198274 40.839086208279 
34.289221393256 26.902222816956 40.829410605995 34.321786245699 26.877034633204 40.793686010292 34.328211824687 26.871511520886 40.785442228488 
34.359832047445 26.845816264924 40.748080214572  34.36504935508 26.841038525752 40.740753240439 34.394598437606 26.815577620956  40.70270899998 
34.399561758084 26.810710953727 40.695044181447   34.4263504611 26.786260126386 40.657597922896 34.432146699074  26.78017097326 40.647770259845 
34.455239571089 26.757754169057 40.612597108436 34.463054975077 26.748954547553 40.598072984918 34.481732123936 26.729656903334  40.56710394279 
34.492163110926 26.716904928715 40.545542899869 34.505705314186 26.701821806975 40.520731442721 34.518872225752 26.683763829884 40.489278406612 
34.526398441953 26.674384498655 40.473336062206 34.541543675659 26.650046829335 40.429452956544 34.542562379777 26.648560592077 40.426826969784 
 34.54426794325 26.644906894746  40.41991301111 34.554338527361 26.623660411575 40.379795479102 34.556364586297 26.615817049426 40.364014990912 
34.560793883446 26.601553431074 40.335744616006 34.562432824182 26.589786777703 40.311266968755 34.562938728735 26.576432384276 40.282709352462 
34.560464961111  26.56360761387 40.253586014064 34.556014582569 26.549950246017  40.22152988937 34.548871425198 26.536750721497 40.188917611372 
34.541082723232 26.525398454966 40.159925317969 34.526686400609 26.510564995147 40.119621410773 34.519232952282 26.504208158789 40.101612530271 
34.493029885278 26.487125321629 40.049674579408 34.491221706844 26.485829481219 40.045837754566 34.490528085891 26.485429675584 40.044576086195 
34.458462027921 26.469303407055 39.991340179043 34.437456894672  26.46055242881 39.960383250364 34.420449052883 26.454260165965 39.937031330885 
34.401292425756 26.449041441043 39.914765426179 34.378828995969 26.441094345997 39.884708227341 34.333138280995 26.431342024616  39.83742306418 
34.331699429005 26.430899193476 39.835640822287 34.320993769897 26.428828563037 39.825024732314 34.283427022654 26.421313426996 39.787234014409 
34.278189533296 26.420655576906  39.78280754752 34.236752978347 26.413911282675 39.744461403793 34.227918568445 26.413085519899 39.737608219719 
34.192055811473 26.408917212064 39.708025047349 34.180015891378 26.408154825441 39.699469372217 34.149841933697 26.404976200847 39.675288458588 
34.126135011747 26.404086056217 39.659762010443 34.105830100778 26.402613516975 39.644929635844 34.067428546956 26.402535302801 39.622724989129 
34.055381663492 26.402186289787 39.615058280351 34.008665835518 26.402751649443 39.589472949358 33.999653899003 26.402529903327 39.583822682174 
33.950111507855 26.402403818391  39.55512175865 33.943765105501 26.402032769763 39.550678515381 33.892910359492 26.400141866691 39.517412204833 
33.890761817127 26.399897642668 39.515651753826 33.874351194251   26.3983833222 39.502963755764   33.8418957676 26.395160959037 39.477379199805 
33.837442827228 26.394887720343 39.474233755554 33.795296238076 26.388908738009 39.437133390692 33.783689786448 26.387998654648 39.428507397896 
33.747782036321 26.382743166135  39.39654989965 33.732425286181 26.381272152666 39.384560188855 33.698472725066 26.376244372147 39.354216513417 
33.684813135954 26.374687716894 39.343015670624 33.652471367039 26.369442996477 39.313127675001 
POLYGONS 1 321
320 0 1 2 3 4 5 6 7 8 9 10 11 12 13 14 15 16 17 18 19 20 21 22 23 24 25 26 27 28 29 30 31 32 33 34 35 36 37 38 39 40 41 42 43 44 45 46 47 48 49 50 51 52 53 54 55 56 57 58 59 60 61 62 63 64 65 66 67 68 69 70 71 72 73 74 75 76 77 78 79 80 81 82 83 84 85 86 87 88 89 90 91 92 93 94 95 96 97 98 99 100 101 102 103 104 105 106 107 108 109 110 111 112 113 114 115 116 117 118 119 120 121 122 123 124 125 126 127 128 129 130 131 132 133 134 135 136 137 138 139 140 141 142 143 144 145 146 147 148 149 150 151 152 153 154 155 156 157 158 159 160 161 162 163 164 165 166 167 168 169 170 171 172 173 174 175 176 177 178 179 180 181 182 183 184 185 186 187 188 189 190 191 192 193 194 195 196 197 198 199 200 201 202 203 204 205 206 207 208 209 210 211 212 213 214 215 216 217 218 219 220 221 222 223 224 225 226 227 228 229 230 231 232 233 234 235 236 237 238 239 240 241 242 243 244 245 246 247 248 249 250 251 252 253 254 255 256 257 258 259 260 261 262 263 264 265 266 267 268 269 270 271 272 273 274 275 276 277 278 279 280 281 282 283 284 285 286 287 288 289 290 291 292 293 294 295 296 297 298 299 300 301 302 303 304 305 306 307 308 309 310 311 312 313 314 315 316 317 318 319 

CELL_DATA 1
FIELD FieldData 6
ClosedSection 1 1 int
1 
SectionArea 1 1 double
        6.86133 
SectionLength 1 1 double
        9.68623 
SectionMinSize 1 1 double
        1.17798 
SectionMaxSize 1 1 double
        1.74671 
SectionShapeFactor 1 1 double
       0.674397 
