# vtk DataFile Version 4.2
vtk output
ASCII
DATASET POLYDATA
POINTS 322 double
50.716734557528 50.998376709624 41.356331815269 50.765282092629 51.030819786249  41.37557005307 50.768143268422 51.032732672931 41.376704816379 
 50.76920986121 51.033439060662 41.377120243881 50.818863202191 51.066494600943 41.396653356101   50.8380509004 51.079120554342 41.404034154059 
50.867957128184 51.098981744038 41.415744377996 50.903151084987 51.122020285851 41.429146355174 50.915887402101 51.130440973028 41.434090739672 
50.956910639178 51.157082792781 41.449471602281 50.961734353319  51.16021103575 41.451275137365 50.963305656753 51.161208475761 41.451838193224 
51.006153203247 51.188741783054 41.467570795281 51.025806804132 51.201091617661 41.474470685088 51.049826819326 51.216320665599 41.483056982516 
51.084777317822 51.237983031145 41.494987752918 51.095460928379 51.244553561062 41.498576743165 51.103547370969 51.249405686836 41.501156041924 
51.143760761793 51.273821276396 41.514307039157 51.190476355465 51.301555324842 41.528871464426 51.195478451264  51.30456306419 41.530474122836 
51.202224347872 51.308503845616 41.532504644661 51.248939825433 51.335182213838 41.545873149693 51.289048460639 51.357222428094 41.556370920603 
51.304319265387 51.365709270062 41.560475806551  51.32077423375 51.374461255422 41.564453822209 51.361253666115 51.395095718708  41.57322525804 
51.406059928973  51.41671502032 41.581551278196 51.419214482813 51.423126622226 41.584068704253 51.430785158458 51.428449392879  41.58592407585 
51.477574833214 51.448898269765 41.592208525953 51.536122209154  51.47268954899 41.598037343256 51.536260194841 51.472742508223 41.598047554575 
51.536456640117 51.472811125772 41.598054412691 51.596069354935 51.493583064228 41.600078295595 51.637211080327 51.506400099578 41.599754544974 
51.655697589336 51.511721156697 41.599112739806 51.687323267985 51.519510331797 41.596526405601 51.714933730266 51.526376790824 41.594343433808 
51.731004047121 51.529824598498   41.5924512194 51.771991843466 51.537569867612 41.586437288925 51.814252347291 51.544349380114 41.578870075862 
51.824221255729 51.545664378462 41.576763028799 51.839261208469 51.547198698416 41.573074812567 51.868552730677 51.550393498194 41.566125753482 
51.909850702016  51.55337841698 41.554606991997 51.914903946116 51.553782405754 41.553241451437 51.946495570984  51.55467193725 41.542850915221 
 51.96750259436 51.555290130196  41.53597191277 51.970438420178 51.555209686886 41.534821532749 52.022574665127  51.55431148672 41.514993198405 
52.032723425912 51.553643936909 41.510575265525 52.076262621399 51.551264391262 41.492170559128 52.093962256182 51.549559042321  41.48385256285 
52.128398945683 51.546762269005 41.468259374254 52.154316537467 51.543274020952 41.454956519686 52.178631837729 51.540520000724 41.443063566748 
52.214062147698 51.534176112628 41.423093413606 52.226864351588 51.532263478694  41.41630758278 52.270560122081 51.522291096377 41.389244588817 
52.273069398132 51.521771048312 41.387750087395 52.273762965551 51.521574451492 41.387277126798 52.318224328411  51.50999011822 41.358111755033 
52.334330707715 51.504340633567 41.345900361872 52.361245840611 51.495676556031 41.326373985064  52.39565738055 51.481113677654 41.297460250577 
52.402007459389 51.478651988116 41.292380333395 52.412848259522 51.473349131063 41.282461451871 52.442455816318 51.460814189934 41.257578412025 
  52.4584669472 51.452706838917 41.242616909625 52.482317535229 51.441699526959 41.221541611535 52.515699141616 51.423057160973 41.188377895524 
52.520413552689 51.420800403987 41.184120292543 52.523531904547 51.419033991547 41.180994051363 52.559322936987 51.400111744292  41.14664394072 
52.592449510995 51.377404997865 41.108967773176 52.594013366259 51.376499452994 41.107377657201 52.596215788627 51.374737925778 41.104587418146 
52.628150002988 51.351373910036 41.066596845252   52.6405702655 51.340513819974 41.049812398499 52.664148584221 51.322602872438 41.021014324218 
52.680264051772 51.309497747182  41.00035328386 52.711208016594  51.28238913987 40.958477809447 52.712168306725 51.281601920993 40.957239509524 
52.713989010488 51.280046926392 40.954820971978 52.747734513453  51.25539688568  40.91471996964 52.763273614656   51.2435644177 40.895708654233 
52.782429090699 51.228153044454  40.87133806852 52.808624689574 51.205814498577 40.836579727791 52.816962452805 51.197947968312  40.82465960133 
52.845955412127 51.167851597734 40.780103264431 52.850214687444 51.161423052653 40.771283726995 52.873254424908 51.129604415639  40.72692418871 
52.879122575838 51.118793051444 40.712558947224 52.895391485576 51.090647666702 40.674803691262 52.901871024395 51.075682065761 40.655511596775 
52.913151290227 51.051656763982 40.624223817351 52.919607446688 51.033411496504 40.601224680913 52.927901916229 51.011959958745 40.573929951409 
52.933843410337 50.991755445014 40.548896908677 52.940033916677 50.971646063101 40.523881795445 52.944640369744  50.95103603547 40.498871036287 
52.949062852137 50.930720370615 40.474260132394 52.951776879816 50.911184290811 40.451148818283 52.954223980597 50.889754944615 40.425988962284 
52.954837677317 50.872486623538 40.406204553657 52.954611231664 50.848993588319 40.379671396196 52.953315844888 50.834690753366 40.363935334363 
52.950188041254 50.807469188511 40.334225000389  52.94848098721 50.797492604462 40.323538604181  52.94223337855 50.764458118456 40.288368537862 
 52.94121457773 50.760060741809 40.283754408571 52.935087855785 50.734977315797 40.257548346611 52.932169021455 50.722065464048 40.243973846487 
52.931605092062 50.719663815768 40.241456526046 52.921776863028  50.68358331361 40.204127569257 52.918919747071 50.673369390662 40.193587238669 
 52.90982170055  50.64448552356 40.164147776911 52.903939158068 50.626011327561 40.145341098924 52.896669081666 50.605126865694 40.124304494629 
52.887311770399 50.578171810591 40.097143693935 52.882621053186 50.565648871537 40.084649082449 52.869280744492 50.529891965548 40.048953882034 
52.867744555508 50.525988472721 40.045085939168 52.860984274803 50.509070944676 40.028359472084 52.852237717754 50.486242490016 40.005653266317 
52.850131357014 50.481005493718 40.000480338304 52.835499635287 50.446069274201  39.96618082196 52.829370941116    50.432331434 39.952828692351 
52.816708755861 50.405160345973 39.926615551539 52.806227785146 50.384229844549 39.906685281809 52.795383737531 50.363503464788 39.887117256325 
52.780525771867 50.336795277946 39.862220766852 52.771340669918 50.320979353902 39.847617164669 52.752421104009 50.290007975574 39.819356405274 
52.744603616319 50.277731908676 39.808269611123 52.721928254412 50.243768926234 39.777974807167 52.715073927853 50.233959502084 39.769334921606 
 52.68882027963 50.198025288504 39.738097990673 52.682504809758 50.189800817399 39.731059251685 52.652902976516 50.153188662994 39.700262319685 
 52.64648190961 50.145614836307 39.693998784121 52.614214292126 50.109516505346 39.664745769996 52.606813787555 50.101562181097 39.658404556744 
52.573148402541 50.067393933836 39.631842416644 52.563628474108 50.058066159665  39.62470993439 52.531385818846 50.028293253727 39.602613880072 
52.518633629389 50.016838606157  39.59423810031  52.48912937504 49.991922697831 39.576656439616 52.473482532487 49.979050638289 39.567719290022 
52.446808442991 49.958056738973 39.553559681837 52.433214086564 49.947372235253 39.546360239105 52.390048795079 49.915597970478  39.52593777113 
52.389498525032 49.915191077707 39.525675346906 52.389222129554 49.915004120745 39.525563270153 52.344763669143 49.884322037444 39.506844691836 
52.315627850442 49.865704316658 39.496265208717 52.297823914639 49.854023403401  39.48945576858 52.256948399169 49.829506443383 39.476428825329 
52.250604981957 49.825717278841 39.474424852955  52.24808920688 49.824354911783 39.473789143223 52.202151456258  49.79859752842  39.46118340204 
52.183756136161 49.789246148144 39.457226421805 52.152740928683  49.77283890086 39.449829230683 52.121142629267 49.757637425016 39.444008417284 
52.102912596221 49.748509088961 39.440244484411  52.05839609585 49.728138520296 39.433228586099  52.05290207374 49.725513687116 39.432237202775 
52.035258091796 49.717794181494 39.429857862405  52.00314763078  49.70396531929 39.425776847718 51.992715620751  49.69992146968 39.424959512947 
51.952863452631 49.683560106791 39.420802682519 51.922140707764 49.672011234218 39.418803940663 51.903649447242 49.664733157114 39.417230385596 
51.868014693902 49.652040471356 39.415708091963 51.855603067504 49.647732130886 39.415305366408 51.848826767456 49.645665101711 39.415408556143 
51.806880864588 49.631918418638  39.41496927227 51.781382927282  49.62459279503 39.415869864454 51.756548149129  49.61676383749 39.415960970111 
51.715414712207 49.605551594672 39.418099772354 51.703823000166 49.602132419789 39.418408541897 51.657071871156 49.590347905848 39.421925893563 
 51.64854393133 49.588224456302 39.422597157975 51.646321717058 49.587765436966  39.42287891862 51.592386645365 49.575381681888   39.4283093697 
51.574023053074 49.571896896278 39.430987107157 51.535397052689 49.563839613123 39.435795425287 51.497880281515 49.557201604568 39.441811405062 
51.478222887587 49.553457657495  39.44466234708  51.42835685188 49.545299296723 39.453411565481 51.421027000672 49.544156119344 39.454761092655 
51.417899869684 49.543758255796 39.455438629974 51.363843980823 49.536089806803 39.466254561826 51.334002807478 49.532681691454 39.473160273695 
51.306439203887 49.529154755843 39.479109628008 51.251752102016 49.523700404806 39.492661615608 51.248448652755 49.523396455176 39.493509162108 
51.246660548374 49.523284199153 39.494027137972 51.190273083012 49.518966704722 39.509480542891 51.152725963151 49.517146128433 39.520965059383 
51.130957486086 49.515760432765 39.527249303886 51.099663797586 49.514556590707  39.53717626746 51.070830879985 49.513658145681  39.54656136297 
51.047750724895 49.513495713735 39.554704676066 51.011401688377 49.512739670855 39.566962915346 50.978433394852 49.512916892625 39.579058660774 
50.954097728258 49.513228063179 39.588191499138 50.917762698164 49.514578795471 39.602831414575 50.898462300935  49.51508360542 39.610366896444 
50.885170115582 49.515734473704 39.615900079988 50.844460721616 49.517708863817 39.632824799031 50.792795260136 49.521312767702 39.655548520127 
50.791588211957 49.521387138892 39.656068277462 50.790629394606 49.521470548731 39.656508712742 50.738128017301 49.525492246578 39.680007344272 
50.691879680333 49.530425218636 39.702282243289 50.683583884155 49.531186925473 39.706138294664 50.673866199699 49.532403055813 39.711022172557 
50.627702219798 49.538115354712 39.734149521604  50.59389999261 49.543951256365 39.752956772624 50.571529152072 49.547230383178 39.764743047991 
50.518902045816 49.558765207533 39.796798535533 50.516598450288 49.559250351112 39.798179284641 50.515892964332 49.559431785005  39.79863936763 
50.461378939322 49.572131842121  39.83269572857 50.453030255606 49.574305297441 39.838170207583 50.408973587444  49.58477649126  39.86592850862 
50.394718186315 49.588399449233 39.875176250561 50.360277945311 49.596453832789 39.896726977562  50.34144871426 49.600887644394 39.908543561483 
50.312410136159 49.607247356988 39.926225502435 50.293118692024 49.611459998728 39.937958293456 50.261660576764 49.617957818846 39.956669664073 
50.249927437142 49.620275983424 39.963529194825 50.233122920672 49.623973027308 39.973780589298 50.203959355598 49.629712481826 39.990804945799 
50.158367068033 49.641058623208  40.02010851213 50.154006156657 49.642079792295 40.022838795806  50.15216776215 49.642589039843 40.024079007169 
50.100606941473 49.656028466346 40.057907469743 50.088267573879  49.65987739804  40.06671990777 50.050500196526 49.671329862343 40.093320694695 
50.033041999253 49.677523615757 40.106636417139 50.004950443546 49.687373376859 40.127930488485 49.986379717229 49.694703198739 40.142934644467 
49.962688278929 49.704619900124 40.162716987142 49.947417338521 49.711684793801 40.176230446363 49.918896415306 49.726029553456 40.202771740922 
49.913677033386 49.728703529406 40.207684197845 49.908256806143 49.732211676934 40.213614138607 49.880475954408  49.74881765362 40.242450109302 
49.854279893041 49.770727342913 40.276722772585 49.847710498352 49.775855332621  40.28490242503 49.827202547265 49.796272300395 40.315431737013 
49.817592847534 49.805625335215 40.329494814359 49.815573808796 49.808138094455  40.33306994648 49.791273942506 49.836552983845 40.374028092102 
 49.78357291506 49.848087018945 40.389873337741 49.769687587733 49.867821363717 40.417239872376  49.75745149365 49.890166969635 40.446969616217 
49.751949450798 49.899750003781 40.459811211584 49.740475216198 49.926641603128 40.494416154676 49.737937916499 49.932301318386 40.501743408396 
49.737290655363 49.934406841737 40.504362251995 49.727360382187 49.965642660606 40.543331625415  49.72498426568 49.979522767856  40.55991346614 
49.721425866144 50.000398690103 40.584847314629 49.720779887079 50.024517118635 40.612403740712  49.72058138623 50.036914878405 40.626520570616 
49.724066659349 50.070055605514 40.662807647472 49.724683489025 50.075210050504 40.668424477939  49.73153337629 50.106350738765 40.701231790705 
 49.73332529703 50.114834592813   40.7101964786 49.733759683719 50.116311429102 40.711712834362 49.745988234621 50.155026847714 40.751160805967 
49.749220337224 50.163449130576 40.759536122705 49.762258072251 50.195303787097 40.790919699917 49.770064942725 50.211363661761 40.806296936086 
49.781986047332 50.234796131482  40.82854204215 49.796887231537 50.260152846643 40.851891879125 49.804705226851 50.273011795893 40.863638827606 
49.830238849187 50.310072782807 40.896412046479 49.830458142019 50.310399465382 40.896703018656 49.830553001941 50.310525822172  40.89681194061 
49.859308793406  50.34789692248 40.928773921709  49.87575120368 50.367423390457 40.944962696028 49.891975432736 50.386273961023 40.960464477565 
49.924801734294 50.421078493384 40.988050195865 49.931898071027 50.428232905225 40.993594945867 49.972489643089 50.467141257114 41.023028098558 
49.976433895104 50.470761884798 41.025706758191 50.020723329633 50.509600592411 41.053726821763 50.023021869409 50.511526333931 41.055079147406 
50.069209406974 50.549003568067 41.080871984526  50.07033192706 50.549887079574 41.081467893942 50.118044617836  50.58661948516 41.105866651585 
50.118490238482 50.586955006967 41.106085978409 50.161229709438 50.618635914779 41.126556320094 50.166481344459 50.622528748998 41.129071653541 
50.166535627691 50.622568398792 41.129096986705 50.213956392764 50.656677115289 41.150628738617  50.21404765912 50.656741889659 41.150669191457 
50.218002305279 50.659509269892 41.152377471385 50.260345881894 50.689138066491 41.170665850098 50.261347180592 50.689833492162 41.171092417004 
50.305827498034 50.720401708738 41.189674111624 50.308354168905 50.722139604643 41.190731320378 50.351468265188 50.751484853628 41.208420469017 
50.355754686794 50.754420112613 41.210199231205  50.39831972317 50.783270038848 41.227525338185 50.404312074504 50.787371899641 41.230010223524 
50.447046269504  50.81634503475 41.247414879237 50.454279790934 50.821283375193 41.250399583431 50.499165682211 50.851671529796 41.268630957703 
50.506605336518 50.856731067285 41.271678591138 50.554324209111 50.888977463986 41.290992995381 50.561847029882 50.894071992946 41.294050263563 
50.609863022942 50.926462163696 41.313420345788 50.626141522473 50.937440293346 41.319983992393 50.663930733572 50.962900848144 41.335193457976 
50.698068716045  50.98582903492 41.348851411788 
POLYGONS 1 323
322 0 1 2 3 4 5 6 7 8 9 10 11 12 13 14 15 16 17 18 19 20 21 22 23 24 25 26 27 28 29 30 31 32 33 34 35 36 37 38 39 40 41 42 43 44 45 46 47 48 49 50 51 52 53 54 55 56 57 58 59 60 61 62 63 64 65 66 67 68 69 70 71 72 73 74 75 76 77 78 79 80 81 82 83 84 85 86 87 88 89 90 91 92 93 94 95 96 97 98 99 100 101 102 103 104 105 106 107 108 109 110 111 112 113 114 115 116 117 118 119 120 121 122 123 124 125 126 127 128 129 130 131 132 133 134 135 136 137 138 139 140 141 142 143 144 145 146 147 148 149 150 151 152 153 154 155 156 157 158 159 160 161 162 163 164 165 166 167 168 169 170 171 172 173 174 175 176 177 178 179 180 181 182 183 184 185 186 187 188 189 190 191 192 193 194 195 196 197 198 199 200 201 202 203 204 205 206 207 208 209 210 211 212 213 214 215 216 217 218 219 220 221 222 223 224 225 226 227 228 229 230 231 232 233 234 235 236 237 238 239 240 241 242 243 244 245 246 247 248 249 250 251 252 253 254 255 256 257 258 259 260 261 262 263 264 265 266 267 268 269 270 271 272 273 274 275 276 277 278 279 280 281 282 283 284 285 286 287 288 289 290 291 292 293 294 295 296 297 298 299 300 301 302 303 304 305 306 307 308 309 310 311 312 313 314 315 316 317 318 319 320 321 

CELL_DATA 1
FIELD FieldData 6
ClosedSection 1 1 int
1 
SectionArea 1 1 double
        7.07561 
SectionLength 1 1 double
        9.66366 
SectionMinSize 1 1 double
        1.25565 
SectionMaxSize 1 1 double
         1.7863 
SectionShapeFactor 1 1 double
       0.702935 
