# vtk DataFile Version 4.2
vtk output
ASCII
DATASET POLYDATA
POINTS 727 double
49.112577969282 45.582660122265 46.049147569558 49.102508649048 45.608053607981 46.103678861399 49.101954108508  45.60935928431  46.10648713112 
49.099916053798 45.614014145383 46.116506170432 49.089930160432  45.63665541987 46.165247530354  49.08748813586 45.642078260415 46.176927638603 
49.076687617101 45.665044858785 46.226449455614 49.072946616508 45.672940531226 46.243477859942 49.062572155762 45.694172538901 46.289305971966 
49.058789111884 45.701985984626 46.306166708833 49.048188435204  45.72359972907 46.352823516164 49.045260478512 45.729706034077 46.365996985134 
 49.03404239172  45.75310861309 46.416484256875 49.032603565976 45.756172965358 46.423091509864 49.022917520044 45.777103803446 46.468204956865 
49.020766738822 45.781717603687 46.478151219128 49.020428155729 45.782463918414   46.4797589846 49.009725255782 45.806557862953  46.53163671148 
49.006754520818 45.813607154029 46.546795670525 48.999429453969 45.831265780813 46.584755262618  48.99335895802 45.847240395645 46.619028475548 
48.989656717419 45.857156153059 46.640294673992 48.981359077256  45.88199329309  46.69344609623 48.980728571557 45.883931920967 46.697592707708 
48.978919412885 45.890353977012  46.71129574618 48.973024407163 45.910711592457 46.754752838626 48.971506180354 45.916805339073 46.767731660784 
48.966524211514 45.937426767896 46.811633808133 48.963580094047 45.951839751241 46.842254226869 48.961242701735  45.96351513962 46.867052945988 
48.957397192038 45.987323835227 46.917513082162 48.957120736118  45.98904534434 46.921161456976 48.956599410972 45.993336411279 46.930235440256 
48.953802086442 46.014320256984 46.974637936022 48.953006562151  46.02253307658 46.991980800052 48.951425975334 46.039452962873 47.027703257526 
48.950363582552 46.056631023529 47.063906057792 48.949926351242 46.064525397255 47.080537379592 48.949225922928 46.088095624971 47.130121291338 
48.949171005747 46.089594467436 47.133275595472 48.949164237396 46.090083769979 47.134303997397 48.948900076372 46.114606128737 47.185835423391 
48.948941248922 46.123577158496  47.20467074721    48.949039489 46.139667853347  47.23845140971 48.949281555254 46.158222217345 47.277388905044 
48.949347504952 46.164800502297  47.29119622028 48.949486892827 46.179767950878 47.322613019285 48.949558785939 46.189905848442 47.343895238472 
 48.94956593686 46.194494214973 47.353530504899 48.949446332747 46.214935790909 47.396474542493 48.949137279372 46.231428248093 47.431147570736 
48.948893481085 46.239830573074 47.448822561919  48.94800771016 46.257353750869 47.485729067065 48.947648197783 46.264621318382 47.501034743707 
48.947381122063  46.26815153766 47.508480507116 48.945405934707 46.289570941325 47.553699592271 48.943314021029 46.306185061795 47.588840939478 
48.942072484798  46.31500827596  47.60751894361 48.938970300345 46.331572163094 47.642675385958 48.937179484606 46.341501538143 47.663742025463 
48.935880290968 46.347222861336 47.675912568832 48.930219182519 46.369424411302 47.723214225719 48.923482229508 46.390540275126 47.768364229899 
48.920672677687 46.398416978224 47.785241613764 48.907457514987 46.427176518557 47.847217528095  48.90713278871 46.427771296186 47.848505393465 
48.889023003896 46.457216172402 47.912504842875 48.888548247419 46.457901882424 47.914001585561 48.868635324006 46.483902355626 47.970982607548 
48.866326013203 46.486638103696 47.977003657933 48.846555023454 46.508035803585 48.024301362013 48.840717150776 46.513919245649  48.03735413477 
48.822674968071 46.530664830616 48.074675480193    48.811043454 46.540837111033 48.097426887001 48.797151456453 46.552309173406 48.123177814852 
48.778027075024 46.567551061663  48.15747039371 48.770258325336 46.573496845463 48.170884571105 48.741657845959 46.594922651693 48.219295235641 
48.741131965524 46.595307136852 48.220165472407 48.738068196913  46.59750704315 48.225151246813  48.70813935888 46.618965873106 48.273789824926 
48.703991226247 46.621901852469 48.280450876369 48.692350630895 46.629977806846 48.298800831069  48.67187679005 46.644127329753 48.330960390171 
48.662971648343 46.650075628022 48.344515493911  48.64094392284 46.664591589005 48.377630096669 48.623700265149 46.675438123801 48.402467413165 
48.606856174344 46.685797051542 48.426233001984 48.584825860475 46.698779992063 48.456128386879 48.567816029717 46.708561130965 48.478700333424 
48.544508152624 46.721431193864 48.508511158361 48.518138098423 46.735440272595 48.541079570519  48.50852322304 46.740417037618 48.552679055426 
48.486250525389 46.751512745671 48.578639957989 48.472327734339 46.758410495549 48.594787956677  48.46644531649 46.761200854215 48.601350200489 
48.435717159981 46.775609824335 48.635278638266 48.419404394564 46.782968727305 48.652680393514 48.397489952783 46.792830588553 48.676007306529 
48.372343317863 46.803810225873  48.70206749472 48.357010619454 46.810523133552 48.717995596491 48.325024096533 46.824123815672 48.750376737685 
48.314674828448 46.828530204739 48.760866025608 48.276927577675 46.844123728287 48.798120003215 48.270636310412 46.846717770757 48.804318761861 
48.228210132602 46.863651742604 48.844946342705 48.225455238131  46.86474379511  48.84756862246   48.1896404213 46.878417719203 48.880560545636 
48.179394506674 46.882322504477 48.889984068631 48.178572120684 46.882624817081  48.89071712562  48.13294031809 46.899090978229 48.930744887925 
48.128085756441 46.900771641365 48.934853947781 48.086478636509 46.914815730247 48.969314660809 48.076956232336 46.917927259374 48.976985888792 
48.039317130705  46.92984037859 49.006497666667 48.023967433609 46.934593730238 49.018312494817 47.992336563628 46.944166901491 49.042192927586 
47.968836005843 46.951141680722 49.059645949166 47.944475538072 46.958252702924  49.07748774065 47.912806730445  46.96736493241 49.100404668862 
47.897653739033 46.971710337619  49.11133928075 47.870784892801  46.97923981241 49.130359285946 47.850094613925 46.984992569283 49.144910464522 
 47.84014445117  46.98768386414 49.151750209626  47.80014060837 46.998329115459 49.178881580659 47.765396993111 47.007330996798 49.201933789547 
  47.7493757491 47.011351602549 49.212289922764 47.716330338728 47.019428508115 49.233196865036 47.697383582822 47.024023111846 49.245107667154 
47.687264672648 47.026408899704 49.251325953489 47.645124242909 47.036001955566 49.276502621993 47.612066593256 47.043264526189 49.295700824165 
 47.59543948149 47.046816436158 49.305144959553 47.561210918042 47.053796140813 49.323888875623  47.54740863426 47.056587554003 49.331398690419 
47.539228167805 47.058146255782 49.335648614081 47.499919906729 47.065528778933 49.355844836412 47.456094277298 47.073299254702 49.377395022333 
47.450775298719 47.074226154528 49.379976524057 47.445928904557 47.075021718975   49.3822257956 47.399487090938   47.0826860943 49.403865439204 
47.349296465202 47.090603323713 49.426483584415 47.346653670765 47.091024358696 49.427683266051 47.343480544306 47.091504387963 49.429070145947 
47.294132751836 47.098699997798  49.45007219854  47.25308316692 47.104396441829 49.466935305971 47.242982781119 47.105807316792 49.471103947142 
 47.23134513325  47.10735172926 49.475736528677 47.193463742065 47.112117698194 49.490267354743 47.153532810532 47.116753497601 49.504769452978 
47.142862089818 47.117988362011 49.508636529018 47.135512844238 47.118766273859 49.511147481339 47.088912441836 47.123280552577 49.526190474259 
47.051754749744 47.126402461854 49.537182193388  47.02405382837 47.128484301997 49.544860833301 46.992323192166 47.130360792227 49.552589221474 
46.952829854672 47.132437927776 49.561665585247 46.887625791554 47.134580581874 49.573948511662 46.885193564447 47.134640045271 49.574363715195 
46.880004360518  47.13464598015 49.574995589502 46.818166215371 47.134761344593 49.582619191047 46.790151641586 47.134139453638 49.584657110577 
46.753912603975 47.132947723238 49.586480013676 46.698952152243 47.129781198833 49.586390297814 46.691409962793 47.129271593172 49.586220339737 
46.672937018444 47.127568548263 49.584848767824 46.630198860603 47.123704761563    49.581835801 46.614630095071 47.121923463196 49.579953229564 
46.570585114775 47.116486342883 49.573792062584 46.538669006454 47.111821817879 49.567805673215 46.512522872334 47.107851713886 49.562588917146 
 46.47000190278 47.100496712188 49.552218055402 46.455592520125 47.097971051876 49.548633844645 46.406435750059 47.088248123532 49.534082136594 
46.399122825399  47.08679876749 49.531911223778 46.346298892235 47.075126080237  49.51370251983 46.342899126822 47.074380303374 49.512542112645 
  46.2880038866 47.061071940442  49.49114553558 46.287205329406 47.060879592967 49.490836902751 46.268329235559 47.055901629203   49.4826357305 
46.232313258865 47.046416071013  49.46701397485  46.23079552958 47.045986537451 49.466293066912 46.178470135593 47.031186414312 49.441456864302 
46.174600439186 47.030024706049 49.439479044701 46.125536352829 47.015304371062 49.414421120151 46.118872449973 47.013184463362 49.410764497817 
46.073765416075 46.998913380963 49.386177723237 46.063567187917 46.995510489253  49.38024855605 46.022709421275 46.982059018762 49.356875850148 
46.007894758569 46.976953259545 49.347921498592   45.9724112694 46.964969861778 49.326990419786 45.950842994851 46.957374787298 49.313614353842 
 45.92335377888 46.947941113373 49.297083762899 45.891728822005 46.936777155634  49.27741303196  45.87391588648 46.930714217304 49.266806378897 
45.825706690647 46.914110204204 49.237690460225  45.82075421786 46.912420713845 49.234733480742 45.819019120328 46.911825179837 49.233689898161 
45.763888782255 46.893953222044 49.202737287077 45.742568488545 46.886998643541 49.190676739217 45.687342173224 46.869746262685  49.16103677035 
45.685936752239 46.869324023693 49.160317776179  45.68507211158 46.869072703202  49.15989318101 45.630223944798 46.853501835994 49.133739454692 
[...]
CELL_DATA 1
FIELD FieldData 6
ClosedSection 1 1 int
1 
SectionArea 1 1 double
        35.8549 
SectionLength 1 1 double
        22.3377 
SectionMinSize 1 1 double
        2.64292 
SectionMaxSize 1 1 double
        4.29846 
SectionShapeFactor 1 1 double
       0.614853 
