# vtk DataFile Version 4.2
vtk output
ASCII
DATASET POLYDATA
POINTS 475 double
29.810396355501 25.263354925818 28.980627131174 29.809458750004 25.267276780118 28.992937968219 29.804377913464 25.283831840984  29.04670595147 
29.803621320893 25.286343438818 29.054840365422 29.797224201304 25.303640355599 29.112763697901 29.796636430218 25.305259583078 29.118168331371 
29.788975398676 25.322844528958 29.178912451474 29.788563411232 25.323801433306 29.182210057721 29.779636696237 25.341285983436 29.244707461076 
29.779379007689 25.341794559155 29.246522182233 29.769175959152 25.359056578116 29.310453392713 29.769082826099 25.359215477059 29.311040624557 
29.760733401451 25.371560291259 29.358449072183 29.757764642723 25.375954837407 29.375320074956 29.757723983473 25.376007111974 29.375529333334 
29.745025869293 25.392367194041 29.440976809538 29.744794646793 25.392633206926 29.442080676381 29.730975539177 25.408501140942 29.507969863726 
29.730863713104  25.40861762086 29.508470185809 29.730150677873  25.40933340975 29.511586200895 29.717096023252 25.422673265619 29.569282954311 
29.714305615332 25.425325093104 29.581065668993 29.703249948445 25.435473838399 29.626762955622 29.693785920866 25.443461540027 29.663952548665 
29.689110444118 25.447335652941 29.682126719305 29.678266745409 25.455327141916 29.721539499331 29.674448197176 25.458264002215 29.735756608691 
29.672601031394 25.459521459278  29.74218419395 29.659148895707 25.468618540194 29.788827024414 29.651335385446  25.47325392395 29.814131812435 
29.642808985464 25.478260988562 29.841604156266  29.63050710437 25.484729009543 29.879157528748 29.625806895893 25.487096901628 29.893220814738 
29.609690618724  25.49430997048 29.938944867436 29.607291452597 25.495306906948 29.945539872535 29.590040489476 25.502164888884 29.992105283156 
29.583970348207 25.504243985513 30.007569894838   29.5695798324 25.509303607952 30.044592080731 29.551652911524 25.514049771485 30.086422271203 
29.545362690644 25.515790480351 30.101307388897 29.531038668352  25.51877029965 30.132491814429 29.519503043537 25.521391447601 30.158215782742 
29.514507971149 25.522189782145 30.168426897758 29.492590090227 25.525720139288 30.213307605824 29.476348523364 25.527336258184 30.243809616608 
29.464886040706 25.528497569678 30.265393544741 29.436616584644 25.529915754881 30.314640753449 29.435925189013 25.529947367351 30.315836742284 
29.433952883511 25.529940093753 30.318979931276  29.40566543272 25.530241350672 30.365178186941 29.395154563251 25.529853239421 30.380966296966 
29.373306641397 25.528811426154 30.413135706227 29.352415242507  25.52719038682 30.442174902006 29.339070482211 25.526014352809 30.460336871878 
29.309311432847 25.522945503085 30.499608630075 29.303041413944 25.522239278536 30.507718564807 29.265619601323 25.517772315168 30.555427402229 
 29.26494081315 25.517683484977 30.556271278486 29.259473767905 25.516965847348 30.563061934338 29.224393201767 25.512503378717 30.607028208691 
29.220394554781 25.512029559357 30.612135678136  29.18170202457 25.506921764114 30.660116644066 29.173820546382 25.506013720614 30.670254943543 
29.136117789578 25.500945470607  30.71675745756 29.128712871003 25.500086267861 30.726266024824 29.087235109778 25.494299625405 30.776843377942 
29.085044220208 25.494052491851   30.7796761781 29.069879572514 25.491994136862 30.798325599908 29.043048181446  25.48843624208 30.831554292475 
29.038609329018 25.487754504244 30.836794833013 29.003080341454 25.483236059388 30.881326048316 28.990863477363 25.481348350386 30.895717975131 
28.964192951873 25.477965220434 30.929170250405 28.941591734652 25.474401533576 30.955598525259  28.92556009136 25.472302450857 30.975526226421 
28.888433366397 25.466117139808 31.018026707121 28.886203279183 25.465796796434 31.020720636062 28.880872848876 25.464818144072 31.026572931943 
28.845895857964 25.458514463204 31.065299435713 28.828903230288 25.454816737472 31.082363158248 28.803802492177 25.449871886563 31.108994283398 
28.764957925214  25.44073010484 31.146103015348 28.759460078161  25.43953624133 31.151630781364 28.746752557893 25.436323172453  31.16315746603 
28.714006966536 25.428187007196 31.193255592638 28.698618696131 25.423836214166 31.205946611788 28.667854350406 25.415651760515 31.232734104086 
28.630957081179 25.404631132233 31.261542352531 28.621459982661  25.40196155494 31.269417731953 28.601351819074 25.395665983887  31.28431959157 
28.575383743926 25.387608168141 31.303763671022 28.561533996382 25.382840011009 31.312837078594  28.52966499601 25.372508162022 31.335478869395 
28.491494301939 25.358664016509  31.35854896911 28.485172794904  25.35651822425 31.362774601456 28.474853771596 25.352644609166 31.368650351263 
28.441413049876  25.34014683457 31.387844471536 28.403428091687 25.324637120675  31.40602703451 28.395667615985 25.321614093748  31.41014320781 
28.390779932647  25.31956453334 31.412334415374 28.346256600477 25.300237589549 31.430484604936 28.320218599807 25.288264770967 31.439252630343 
28.290316057858 25.274055932971 31.448057115457 28.248640378187 25.253357802965 31.457861721868 28.228653304569 25.243130924328 31.461736242643 
28.179172834259 25.216915478066 31.468854819002 28.160941558166 25.206731219385 31.470030792223 28.114310092757 25.180293892779 31.471968649688 
28.085395660349 25.162681471358 31.469809448066 28.053575694475 25.143497251543 31.467978956715 28.005002145317 25.112282892519   31.4598679604 
27.996643494548 25.106973799443 31.458644005758  27.97974352648 25.095550602226 31.454270768845 27.942707284837 25.071372875324 31.447046134809 
27.926381139865 25.060167443807 31.442352662583  27.89256143984 25.037213316812 31.433341018164 27.853296970944 25.009392077272 31.419649987388 
27.848351955491 25.005896154517 31.417947541954 27.842481290314 25.001616300787  31.41556947205 27.809064008827 24.978055884129 31.404241723896 
27.781843727527 24.958307110793 31.393478458458 27.767287218428 24.947942743581 31.388264441824 27.732197612269  24.92212502147  31.37339856645 
27.718000661147 24.911779177014 31.367658923275 27.682178412878 24.885091457751 31.351570708661 27.664960084486 24.872337526422 31.344041087991 
27.633070370321  24.84822643882 31.328745957992 27.612360302031 24.832600430923 31.318902166567 27.585465704076 24.811968372016 31.305182575815 
27.559797259009 24.792331964762 31.292240073757 27.538469682444 24.775888459896 31.281133958392 27.506874658088 24.751595755258  31.26486573276 
27.491326236219  24.73964748473 31.256877957988 27.452273103823 24.709670002838 31.236906227808 27.443001694788 24.702609322788 31.232319495123 
27.393425035061  24.66485817989 31.207804516372 27.391845554948 24.663671823304 31.207068595071 27.380949743769 24.655468422981 31.201938232597 
27.337001184089 24.622628092041 31.181929027478 27.331767798099 24.618691333725 31.179474309033 27.278418505798 24.578413651498 31.154047826349 
27.273334838289 24.574594997529 31.151678434674  27.23077415424 24.542157687721 31.130553887565 27.217665625443 24.532240008287 31.124248459626 
27.215907723599 24.530886131062 31.123337074743 27.163937559241  24.49170549789 31.098721746807 27.155304719784 24.485025134513 31.094158863113 
 27.11397721668 24.453567788409 31.073756903139 27.100636021403 24.443142424768 31.066425654172 27.066836600431 24.417054813255 31.048746839359 
27.050230065145 24.403933479479 31.039223593725 27.022238001002 24.382100521087 31.023954941374 27.003144295995  24.36683780922 31.012519887137 
26.979519008394 24.348195196573 30.999039024419 26.958571279601 24.331245260673 30.985928175829 26.938051863114 24.314869445939 30.973712440699 
26.915785139307 24.296662476202 30.959253139783 26.897333242216 24.281795176813 30.947878338891 26.874457927817 24.262942381691 30.932615470746 
26.856937409872 24.248685971365 30.921430270138 26.834442132931  24.22993138205 30.905828504992 26.816545342332 24.215182698641 30.893890269448 
26.795739419299 24.197608384753 30.878831450029 26.774933579383 24.180213731971 30.864267572393 26.757791437799  24.16555401565 30.851364170341 
26.731592542137  24.14303956299 30.831341661021 26.719636164107 24.132431566159 30.821286143061 26.688403581785 24.104876817205 30.795447717564 
26.680996213422 24.098087913075 30.788620297671 26.645984555585 24.066973040279 30.759032550688 26.641488550191 24.062851822406 30.754886905354 
26.604421446188 24.029682406577 30.722934224035   26.6015322463  24.02701308572 30.720212399465 26.564437059053 23.993278548569 30.686747507467 
26.562470084294 23.991422766915 30.684788388403 26.525999475347 23.957649700334  30.65021561044 26.524396405286 23.956105241394 30.648530734556 
26.488861065642 23.922561770347 30.613090623296 26.487294973728 23.921016847255  30.61134516193 26.452544655066 23.887502667666 30.574726730376 
26.450731395859 23.885687590036 30.572633242742 26.416337382168 23.851954794177  30.53484094036 26.414156007428 23.849741587568 30.532240759187 
26.380015070969 23.815616129684  30.49296054377 26.377787164909 23.813308224469 30.490174038705 26.343525942351 23.778127500557 30.448178844502 
26.341782155868 23.776265720701 30.445845241904 26.307907042902 23.740141435836 30.400630714122  26.30709580703 23.739232056989 30.399425905085 
26.288028438555 23.717724788077 30.370741077574 26.274037339029 23.701975254824 30.349780851385   26.2734695962  23.70133893173 30.348937956074 
26.242546698798 23.664760908893   30.2977382695 26.241175046226 23.663163697854 30.295536876586 26.229431078338 23.648728135713 30.274593430991 
26.214658881289 23.630624504456 30.248398983468 26.213016317348 23.628393091349 30.244884474341 26.193267673387 23.602637898322 30.205586691299 
26.186695978163 23.593424833822 30.190738969225 26.176001352928 23.578634709351 30.167135528216 26.168604001458  23.56786368615 30.149318894816 
26.157117428819 23.551006250637 30.121288905432 26.151672681427 23.542414586622 30.106346091087 26.138487184816 23.521412813225 30.069620718649 
26.135270537244 23.515865855712 30.059494432103  26.12114924343  23.49096114017 30.013514946461 26.119785536537 23.488313806503 30.008407086657 
26.105861739269 23.460500259079 29.954095258819 26.105826125871 23.460420497062 29.953932583831 26.105406721352 23.459435187285  29.95189011035 
26.093901395229 23.432709369019 29.896696831068 26.092983520838 23.430465438513 29.891985553977 26.083896509989  23.40498702953  29.83635108863 
26.082284061487 23.400265209086 29.825925700117 26.075288925154 23.377264157941 29.773762855115 26.073270029848 23.370440741926 29.758198168242 
26.068299624897 23.349249425687 29.707774924147 26.066860132497  23.34307352453 29.693065271952 26.063792011782 23.321178334616 29.637651499547 
26.063335491003 23.318137099619 29.630003235733 26.062001917411 23.296150874776 29.571556697593 26.061899282283 23.294709906306 29.567750566078 
26.061900671811 23.294517311026 29.567217620957 26.062178154114 23.272465297727  29.50600594466 26.062481257034  23.26938514652  29.49703213993 
 26.06453277816 23.251422570191 29.444244090397 26.065851616861 23.245006413468 29.424448509327 26.068849013044 23.231502492619 29.382429736464 
26.072480138705 23.221012651878  29.34770018758  26.07530545964 23.213029355594 29.321170055205 26.083254349985 23.197507830024 29.265650231871 
26.083998454168 23.196055346849 29.260454349007 26.086303775639 23.192622525174 29.247297516246 26.094182460857 23.179896737931 29.199594240804 
26.098028676439 23.174959299419 29.179819954067 26.106125991637 23.164539410976 29.138120181287 26.117172589257 23.153004782318  29.08861849272 
26.120429525639 23.149611383958 29.074044071612  26.12835089659 23.142874892815 29.042776471439 26.136826077384 23.135031195392 29.007569633973 
26.141383649002 23.131511287062 28.990560610497 26.155478850923 23.121178458384 28.939481181557 26.171074957584 23.113056517023 28.892086897285 
26.176326345098 23.109760153132 28.874581115006  26.18885082434 23.104019970473 28.838676369223  26.19705573106  23.10012817003 28.814792871992 
26.200994358112 23.098774961822  28.80474709726 26.217345052999 23.092061864309 28.760024803289 26.230945571385 23.088034283362  28.72711353366 
26.237293079145 23.085746398327 28.710628736341 26.247975946281 23.082780390127 28.685322143095 26.257436893273 23.080200170723  28.66303837711 
26.265040407232  23.07872984745 28.646792043576 26.278359672838 23.075449121825 28.616389892523 26.295554527466 23.072416662007 28.580456098869 
  26.3012366571 23.071459909689  28.56870652767 26.306134694475 23.070918780454 28.559359796095  26.32480808032 23.068133036479 28.521734549118 
26.346773547814 23.066153780268 28.481051742386 26.348917089494 23.065961229367 28.477083283159 26.350925744957 23.065892510716 28.473672390562 
26.373539240716 23.064313706371 28.433053747391  26.39217049705 23.063890894105 28.402007375756 26.399780039605 23.063467359411   28.3886359095 
26.417265275636 23.063318468942 28.360182373798 26.426775417141 23.063203455585 28.344612843134 26.430242497644 23.063345887532 28.339444740223 
26.456209110879 23.063865253926 28.299230014909 26.463214987732 23.064259950769 28.289081445687 26.491276677032 23.065467894345 28.247404032654 
26.492454538765  23.06553573814 28.245701899703 26.494776969772 23.065687124083 28.242394287531   26.5220605545 23.066786446288 28.201665500161 
26.540584280366 23.067526626076 28.173996335531 26.555332111887  23.06837268724 28.152674810555 26.575844671343 23.069980932046 28.124207950126 
26.591335792447 23.070670825738 28.101263983101 26.605529760737 23.071714446235 28.081375153156 26.628825994586 23.073621851122 28.049268134234 
26.654297702399 23.076541428576 28.016461184598 26.668682164021 23.077586294884 27.996270269717 26.687684241081 23.079654047002 27.971492178923 
26.709420727461 23.082010152885 27.943123164236  26.72873692221  23.08476253723 27.919727859904 26.753503124331 23.087308787208 27.887023674529 
26.773930457158 23.090316754917 27.862550586429 26.800538227022 23.094285031846 27.830811394248 26.833346910418  23.09982509015  27.79345823316 
 26.84482080874 23.101820888395 27.780555744436 26.879741933979 23.108423365997 27.742742205255 26.887326388492 23.109737592751 27.734199560367 
26.890144235717 23.110311385257 27.731261373195 26.928909759897 23.118430030507 27.691460051787 26.948143519849 23.123182198548 27.673707572838 
26.971900652834  23.12900550592 27.651652033923 27.008651544863 23.139182737282 27.620754479866 27.015487881372 23.141005357731 27.614812617395 
27.033036746493 23.146182137543 27.600932476711 27.056798030528 23.152882422104 27.581286883174 27.067342327602 23.156213906707 27.573555936158 
27.094697962628 23.164636011757 27.552890291503 27.123616196207 23.174252867302  27.53301077351 27.132806925152 23.177163791569 27.526291814145 
27.157943412614 23.185681168636 27.509447825095 27.174986314549 23.191298520759 27.497593204001 27.180368661761 23.193120959919 27.493982785828 
27.220088262162 23.206052570375 27.465913925598 27.236949641893 23.211620180556 27.454213365128 27.266600257096 23.221166432239 27.432964679074 
27.292991249649  23.22972982692 27.414235490231 27.314480544165 23.236655056345 27.398853628709 27.347650045023 23.247388156342  27.37523175257 
27.364080471359  23.25283998738 27.363903324161 27.400905555862 23.264826963604 27.337873720806 27.414675009015 23.269482280334 27.328618147751 
27.453451787824 23.282360689132 27.301914805251 27.466268951015   23.2867792418 27.293534110013 27.505702286423 23.300143284787 27.267115981978 
27.518544314477 23.304660434267 27.258967101748  27.55801479767 23.318173561433 27.232900212326 27.571593596016 23.322970818917 27.224341548834 
27.610607937775 23.336303270536 27.198508359794 27.625372627144 23.341501123204  27.18915161725 27.663585132252 23.354459506599 27.163573649233 
27.679284397095  23.35991950737   27.1534403882 27.717025591356 23.372543932412 27.127698062746 27.733004837223 23.378021252532 27.117163486539 
 27.77091313806 23.390701585718 27.091307212214 27.786254613732 23.395949054722 27.081162128617  27.82566965316  23.40925286735 27.054607373034 
27.838896716497 23.413792791504 27.045903721744 27.881606372941 23.428449884892 27.017794085766 27.891325987438 23.431814952398 27.011478326208 
 27.94153289444 23.449352608241 26.979282108059 27.944573757149 23.450412778686 26.977326508756 27.961952496277 23.456464773894 26.966130968459 
27.997948655581 23.468767884738 26.942301957973 28.003272791086 23.470582780216  26.93876411376 28.054635030631 23.488671321027 26.906232966315 
28.060834143933  23.49080175143 26.902161300845 28.109336731996  23.50824219828 26.872430641789 28.114942919469 23.510223080375  26.86889782927 
28.115818585646 23.510547828287 26.868388291329 28.164786277427 23.527092147243 26.835442312752  28.17788871393 23.531742369631  26.82724247944 
28.212169500049 23.542911328636 26.803039351985 28.241049485036 23.552894780324 26.784231372278 28.258970149454 23.558713716239 26.771524459441 
28.304615711799 23.574534136552 26.741911815013 28.306010278148 23.575000009898 26.740958938175 28.306584980306 23.575208108688 26.740610654811 
28.353405527821 23.591324770647 26.709929865249 28.371933830651 23.598335336228 26.699532067902 28.402423138852 23.609552850775 26.681543606053 
28.435102889184 23.622547925534 26.664940313376 28.452922070175  23.62957228662 26.655717838074  28.49570302031  23.64748624073 26.636468481981 
28.503679687092 23.650831309918 26.632892997442 28.553706959224 23.672671149824 26.612840003058 28.554797995301 23.673150118574  26.61241002131 
28.567166312446 23.678712470974 26.607901056951  28.60604791596 23.696094820781 26.593440677438 28.609287821587 23.697578907316 26.592333993598 
28.658253993768 23.720400845412 26.576689092373 28.664070240265 23.723184125626 26.575030474477 28.711910525728 23.746501174256 26.562555627292 
28.719488743338 23.750326323247 26.560942095771 28.766961321992 23.774751659083 26.552110987854 28.776832619738 23.780037036684 26.550843571518 
28.823375998226 23.805253621435 26.545683107378 28.836896942105 23.812918228696 26.545118516366 28.881555521553 23.838453932559 26.543860305658 
28.901094090187 23.850188249442 26.544859012952 28.940721505723 23.874193254969 26.547451906532  28.97079302526  23.89348610258 26.552385934518 
28.999742375865 23.912152327312 26.557392999401  29.03763838608 23.938673109985 26.569695252172 29.048638042617  23.94626990066 26.572987488179 
29.060260885613 23.954874947847 26.578058599315 29.092066441806 23.978105186775 26.591061432725 29.124896503331 24.003690630642 26.608911154309 
29.130796047173 24.008222889393 26.611938436493 29.134084957911 24.010921062772 26.614098701114 29.167206768475 24.037928987255 26.635400303434 
29.188706501947 24.056343053315 26.651660398057 29.202501516146 24.068178097113 26.662148323081 29.230094003486 24.093159010491 26.686732347802 
29.236326633066 24.098740528739 26.692116763838 29.238869169517  24.10116291175 26.694714112548  29.26864092094 24.129640289209 26.725437854572 
29.283349672482 24.144465573324 26.742700227009  29.29978076121 24.161075397016 26.762117759236 29.324439055834 24.187159321541 26.794447177819 
29.329758045137 24.192815509027 26.801502671589 29.344386299332 24.209087691683 26.822881228851 29.358056965348 24.224167064335 26.842508676131 
29.362493133649 24.229282438208 26.849489791148 29.384693665966 24.255070579945 26.884945968876 29.398173379717  24.27138386171 26.908279836518 
29.409002986309 24.284576303855 26.927264209316 29.431289987873 24.312678182833 26.968957451993 29.431413197405 24.312834747378 26.969191275591 
29.431765764776 24.313294364871 26.969892343727 29.453556193566 24.341538055481 27.012772778928 29.460115716976 24.350211304298 27.026152503533 
29.476428715698 24.372228333013 27.060659553903 29.487263960042 24.387088010861 27.084229128171  29.50071261008 24.405910182665 27.114526327093 
29.513334469029 24.423776742011 27.143516263241 29.528528529588  24.44596336614 27.180285232215 29.534428672179 24.454592316398 27.194600418683 
29.552266482948 24.481327211572 27.239662515448 29.554217909621 24.484241754666 27.244564099486 29.554811954967 24.485151060795 27.246117043653 
29.572984192065 24.513149744201 27.294125280704 29.577513061134  24.52030654993 27.306583100256 29.591261713847 24.542182200497 27.344813329571 
29.599023494049 24.554844349478 27.367256679297 29.609260068881 24.571726329861 27.397359081932 29.619236529621 24.588555976267 27.427734450178 
29.626774495394 24.601416131006 27.451082384702 29.638171796892 24.621230936825 27.487404894446 29.643891193356 24.631278907329 27.505920225628 
29.655324097382 24.651779763338 27.544076118656 29.659950055849 24.660237218824 27.559962301125  29.67020500691 24.679435683504 27.596418547773 
 29.67515518636 24.688932134055 27.614647796882 29.683132652291 24.704425331147 27.644546475526 29.691922201478 24.722310022632 27.679732729506 
29.694925634071 24.728415277333 27.691739422145 29.699896170837 24.739183146618 27.713439549813  29.70632987258 24.752839310236 27.740752016433 
29.710110603465 24.761365757221 27.758183909058 29.717618924911 24.778148906116 27.792389611127 29.727580469642 24.801707221174 27.841330456611 
29.728589772296 24.804077674136 27.846243744743 29.729897496349 24.807332736322 27.853116051096 29.738764631881 24.828789214831 27.898020305216 
29.746527623176  24.84936316573 27.942263515362 29.746983826533 24.850544057883 27.944785917781 29.747221725805 24.851197066148 27.946203802064 
29.755215877287 24.872722145383 27.992697206031 29.756634807035 24.876631009768 28.001192778711 29.763789728669 24.896655628986 28.044897484705 
29.764753414898 24.899432535284 28.051003958526 29.772294400251 24.921854617106 28.100695946523 29.772413031957 24.922213424512 28.101494413637 
29.773319070143 24.925079182487 28.107938184958 29.779915236622 24.945663625663 28.154081690067 29.780723395081 24.948305724831 28.160066127922 
29.786860068289 24.969112739188 28.207559897973 29.788538768049 24.975201165686 28.221644857882 29.793199019427 24.992944881581 28.263065308353 
29.795680831515  25.00326603252 28.287525934561  29.79885361731 25.016946625044 28.320135654943 29.802337587633 25.033215684037 28.359379081667 
29.804186777702  25.04222357483 28.381235496119 29.806034043756 25.052967358628 28.407878432213 29.808846533754 25.067619888891 28.443744280595 
29.812215321945 25.089250992169 28.497948116575 29.812825541813 25.092845000254 28.506873098417 29.814194527784 25.103054512989 28.532810871752 
29.816413401888  25.11866937437 28.572280580598 29.816888487114 25.123729962917 28.585463611511 29.819153185541 25.144022128253 28.637748629451 
29.819863996745 25.157526885381 28.673822392401 29.820588126486 25.168559140514 28.703061555304 29.820561627541  25.19043891429 28.763396074174 
29.820562709508 25.190528400756 28.763640928264 29.820551108425 25.190704922487 28.764145958571 29.819555801936  25.21082127121  28.82117497154 
29.818450809857 25.219363879367 28.846487240838 29.817310688108 25.229574474574 28.876452165816 29.815067247763 25.242336069892 28.915216169611 
29.814025663549 25.248364649341 28.933499073138 
POLYGONS 1 476
475 0 1 2 3 4 5 6 7 8 9 10 11 12 13 14 15 16 17 18 19 20 21 22 23 24 25 26 27 28 29 30 31 32 33 34 35 36 37 38 39 40 41 42 43 44 45 46 47 48 49 50 51 52 53 54 55 56 57 58 59 60 61 62 63 64 65 66 67 68 69 70 71 72 73 74 75 76 77 78 79 80 81 82 83 84 85 86 87 88 89 90 91 92 93 94 95 96 97 98 99 100 101 102 103 104 105 106 107 108 109 110 111 112 113 114 115 116 117 118 119 120 121 122 123 124 125 126 127 128 129 130 131 132 133 134 135 136 137 138 139 140 141 142 143 144 145 146 147 148 149 150 151 152 153 154 155 156 157 158 159 160 161 162 163 164 165 166 167 168 169 170 171 172 173 174 175 176 177 178 179 180 181 182 183 184 185 186 187 188 189 190 191 192 193 194 195 196 197 198 199 200 201 202 203 204 205 206 207 208 209 210 211 212 213 214 215 216 217 218 219 220 221 222 223 224 225 226 227 228 229 230 231 232 233 234 235 236 237 238 239 240 241 242 243 244 245 246 247 248 249 250 251 252 253 254 255 256 257 258 259 260 261 262 263 264 265 266 267 268 269 270 271 272 273 274 275 276 277 278 279 280 281 282 283 284 285 286 287 288 289 290 291 292 293 294 295 296 297 298 299 300 301 302 303 304 305 306 307 308 309 310 311 312 313 314 315 316 317 318 319 320 321 322 323 324 325 326 327 328 329 330 331 332 333 334 335 336 337 338 339 340 341 342 343 344 345 346 347 348 349 350 351 352 353 354 355 356 357 358 359 360 361 362 363 364 365 366 367 368 369 370 371 372 373 374 375 376 377 378 379 380 381 382 383 384 385 386 387 388 389 390 391 392 393 394 395 396 397 398 399 400 401 402 403 404 405 406 407 408 409 410 411 412 413 414 415 416 417 418 419 420 421 422 423 424 425 426 427 428 429 430 431 432 433 434 435 436 437 438 439 440 441 442 443 444 445 446 447 448 449 450 451 452 453 454 455 456 457 458 459 460 461 462 463 464 465 466 467 468 469 470 471 472 473 474 

CELL_DATA 1
FIELD FieldData 6
ClosedSection 1 1 int
1 
SectionArea 1 1 double
        16.1418 
SectionLength 1 1 double
        14.6014 
SectionMinSize 1 1 double
        2.00951 
SectionMaxSize 1 1 double
        2.78986 
SectionShapeFactor 1 1 double
       0.720289 
