# vtk DataFile Version 4.2
vtk output
ASCII
DATASET POLYDATA
POINTS 437 double
57.439750784887 39.267843944979 44.056507020673 57.457820825431 39.260196976328 44.072390630015 57.484833405004 39.248786071524 44.096126824731 
57.485568762307  39.24849881315 44.096763909438 57.530756267815 39.229892179405  44.13628340136 57.531363586917 39.229660261498  44.13680749093 
57.577433825652 39.211020678506 44.176970610626 57.577547197904   39.2109784224 44.177068042884 57.583606045641   39.2085824679 44.182328508862 
57.625335780416  39.19208644725 44.218557178998 57.626150597946  39.19174106841 44.219273623224 57.677473675828 39.171686369366 44.263740240066 
 57.67899117261 39.171051589251 44.265071248527 57.733949012023 39.150158079471 44.312461187992  57.73673533013 39.149004262398 44.314900537371 
 57.79020443673 39.129727268794 44.360598706555 57.804861686987 39.124071072192 44.373270186234  57.84480274334 39.110041990693 44.407262421199 
57.882170223186  39.09603650146 44.439406331076 57.896912570074 39.090896827352 44.451938000347 57.928797383684 39.078893847187 44.479386021004 
57.946233622861 39.072095342473 44.494487142173 57.953223170704 39.069237898584 44.500591964503 57.994778698813 39.053484767603 44.536407594056 
58.017418138349 39.044704061124 44.555997001439 58.042956391492 39.035464309874 44.577836293656 58.077977958902 39.022482843615 44.607905995898 
58.091227869188 39.017807530929 44.619190758094 58.136140271175  39.00158030463 44.657589463075 58.139202837126 39.000509888041 44.660193834459 
58.153494705344  38.99534757361 44.672412370762 58.184524656458 38.983977004349 44.699003843227  58.19055829949 38.981612006495 44.704234273189 
58.226692800595 38.967790861823 44.735425454771 58.239163259827 38.962763638327 44.746289882034 58.264966572493 38.952108041034  44.76886852518 
58.277968980031 38.946364493059 44.780391328629 58.309407779142 38.932178916415 44.808368358179 58.318319595941 38.927863343874 44.816413250315 
58.356406575603 38.909132793145 44.850906605997 58.360405572512 38.907047075078 44.854574536121 58.404731136347 38.883601085507 44.895357717481 
 58.40488091338 38.883517793613 44.895497104549 58.449851833507  38.85833523063 44.937415983463 58.453299343818 38.856345136391 44.940652661917 
58.496683082286 38.830845181476 44.981560567777 58.503519570235 38.826655439435 44.988073488327 58.544182894982 38.801298132561  45.02698189182 
58.555337289736 38.793986029724 45.037793289758 58.588602863503 38.771724347303 45.070212643617 58.610623331215 38.756065154017 45.092031396347 
58.624770445025 38.745655527021 45.106184602516 58.643157816726  38.73101788699 45.125010243578 58.652687595527 38.723157410702 45.134873632554 
58.678338943507 38.700154607013 45.162139472654 58.681041366081   38.6977127237 45.165019167179  58.68158540452 38.697198954736 45.165607508493 
58.710220990445 38.667216415496 45.197716991154  58.71689308879 38.660033472531 45.205275026936 58.740239214448  38.63209453947  45.23281072907 
58.752672211782   38.6165120068 45.247748187378 58.769348935257 38.592660345798   45.2689301744 58.785741075969 38.567590143259 45.290382084751 
58.795982110511 38.549149529764 45.304863206272 58.814009742029 38.512963729587 45.331801316587 58.818716105048  38.50116919058 45.339745770417 
58.835473280272 38.452963441725 45.370444656524  58.83638251354 38.449356830189 45.372495273307 58.840810620682 38.428808294022 45.383641028821 
 58.84819256531 38.394033100433 45.402423488894 58.849393519847  38.38748804376  45.40582390482 58.855532941841 38.336778555764 45.429907479539 
58.857350809018 38.316894985429  45.43892959225 58.859303686373 38.277880589266 45.455478818699 58.860236438065 38.240522762114  45.47065559982 
58.860045914096 38.216850433453 45.479714047782 58.857807667846 38.155568855639 45.501916988273 58.857652955732 38.153146847934  45.50274716139 
58.856954986074 38.146058473907 45.505001574905 58.850511159688 38.086679821286 45.523459953008 58.847795459533  38.06555327502 45.529725016897 
58.840551276493 38.017424334456  45.54324191753 58.833105026061 37.973423386055 45.555011054959 58.827880307858 37.946038120581 45.561914050804 
58.814220525778 37.880917397778 45.577445957556 58.812416389049 37.873223528017 45.579145049511 58.793794567811 37.800513409748  45.59407872929 
58.793028568148 37.797871041236 45.594557647069 58.772522138016 37.729342622644 45.606520304083 58.768662958396 37.717424912405 45.608391383305 
58.751115058714 37.663553377252 45.616775401739 58.742783469867 37.639116436502 45.620312963673 58.730134569294 37.602479902445 45.625503695307 
58.715482121278 37.561924210035 45.630784872518 58.709234805349  37.54495149528 45.632912733201 58.692186777142 37.500782635729 45.637885346141 
58.687834537226 37.489670463256 45.639091188358 58.686039509135 37.485405627623 45.639464913656 58.664762973315 37.435783889027 45.643533657795 
58.654577496054 37.413954211738 45.644733679812 58.639832902113 37.383258196439 45.646119395438 58.621593281866 37.348190652606 45.646705403014 
58.612429041986 37.331238080826 45.646740911086 58.585466324371 37.285568608593 45.645211019178 58.581053550828 37.278478947335 45.644811212833 
58.545635454423 37.224827148403 45.640339258661 58.545152498937 37.224130274817 45.640264796596 58.504770762126 37.168347223141 45.633073466229 
58.500509977992 37.162794927619 45.632185146069  58.46324838753 37.114983659498  45.62412724219 58.443460010543 37.090728166665 45.619406933769 
58.419930154664 37.062189328828 45.613676542764 58.398164204715 37.037137873141 45.607852157357 58.374687390257 37.010304642195 45.601497194299 
58.341983469325 36.974793294034 45.591918920217 58.328033572592  36.95973547503 45.587798498448 58.287505192802 36.918148900396 45.574988298542 
58.279760323028 36.910271935329   45.5725130655 58.233422680653 36.865172849024 45.556915676979 58.230574627285 36.862402098057 45.555956556586 
58.203446889175 36.836882237931 45.546482396373 58.179444626223 36.814334418073 45.538087428139 58.176998622136 36.812137471628  45.53719275303 
58.126402425498 36.766426835754 45.518789595778 58.119173403402 36.760254766191 45.516020803416  58.06958212894   36.7175162767 45.497181380705 
58.063312578367 36.712461902882 45.494664132157 58.016201483685  36.67387127432  45.47598605017 58.009535449498 36.668409153417  45.47334383514 
58.008528019901 36.667576557883 45.472947282748 57.955813108155 36.627547358891  45.45082328776 57.945948232552 36.620074917431 45.446675907926 
57.903572773321  36.59011473837  45.42802990018 57.883841646801 36.576070262517 45.419384429286 57.852605798671 36.555135549488 45.405193556408 
57.816158151866 36.530442346171 45.388738002986 57.802139353735 36.521408744227 45.382228467382 57.781040870185 36.507772094382 45.372447434348 
57.751478450336 36.488408855958 45.358842069148 57.726141232713 36.471821091766 45.347178145196 57.698799296753 36.454575171653 45.334337219503 
57.669854564302 36.436221015645 45.320781334708 57.645554886858 36.420182990816 45.309645345713 57.616828120304 36.401206060568 45.296487119069 
57.595074344456 36.387276222553  45.28635167045 57.576910366481  36.37557279927 45.277916843409 57.546942047763 36.355498779112 45.264297485396 
57.509013657069 36.330400760105 45.246940979202 57.503291767227 36.326721728428 45.244280908266 57.497805957843 36.323154808452 45.241746002649 
57.461150370049 36.298761277292 45.225025451739 57.434266780134 36.280675974629 45.212838100817 57.415740981795 36.268891139057 45.204176326623 
57.361993422591 36.233113591143 45.179662978335 57.358507014761 36.230989723802 45.177996412071 57.354561001224 36.228519258209 45.176136019318 
 57.29918811805 36.191415434562 45.150976302219 57.269855761675 36.172370981372 45.137411528048 57.247995407988 36.157399961893 45.127604322196 
57.210030044322 36.132581009035 45.110113001435 57.202085865251 36.127461818951 45.106424184204 57.197216837662 36.124490683584 45.104098641403 
57.159096238588 36.100450787064 45.086193789992 57.118616592822 36.076965131827 45.066387813349 57.117556079809 36.076325761034 45.065878275125 
57.116722817923 36.075880237882 45.065455845321 57.075757808919 36.054226490235 45.044591478489 57.044407459659  36.03958559383 45.027874189175 
57.032647131933 36.034260555325 45.021538181711 57.013379398583 36.026699269055 45.010705721849 56.988898712892 36.016871561538 44.997028220352 
56.975293108998 36.012354154289 44.989059825248 56.944355218532 36.002604674804 44.970737410269   56.9111113223 35.994492648021 44.950131043155 
56.898607593635 35.991650503644 44.942299392757 56.856039645429 35.984992926982 44.914464829426 56.851655205936 35.984295366177 44.911602506754 
56.850438762365 35.984208005801  44.91076712833 56.802986332638 35.981728166749 44.877819274469 56.791599043105 35.982214375583 44.869492697463 
56.753674914423 35.984204323822 44.841617961442 56.733582865671 35.987184368825 44.826102045587 56.705484770785 35.991190614762 44.804466160281 
56.664275495229 36.001327405153 44.771079424855 56.661289426266  36.00214764574 44.768626891924  56.65808013676 36.003282823046 44.765892513307 
56.617624947382 36.017009731291 44.731650229678 56.589167519081  36.02823213721 44.706954714126 56.574237110957 36.035108565005  44.69361407522 
56.555383092382 36.044608758822 44.676450395842  56.53177236184 36.056204974517 44.655073296366 56.516034453859 36.063963602122  44.64081293529 
56.489444453794 36.080176551198 44.615513560858 56.449439980364 36.104610692425 44.577434562045 56.447751168462 36.105805917307 44.575763443078 
56.444631046163 36.107909643056 44.572716590983 56.407262665973 36.132192729776 44.536580101543 56.387247329078 36.144628294177  44.51744637484 
56.367946913853 36.157583283982 44.498621803692 56.331648848274 36.180341246673 44.463842571506 56.329906147242 36.181527316249 44.462136497636 
56.323891539225 36.185197083581 44.456412883362 56.290674854058 36.205132738227 44.424931922621  56.28193853628 36.209745680334 44.416896946068 
56.249309985372 36.228427198038 44.386323406323 56.233116184466 36.236630815897 44.371564410024 56.205525003562  36.25178062713 44.345962494029 
56.181981776738 36.263302455856 44.324662527656 56.159534882052 36.275288610646 44.303965686391 56.130051639702 36.289384195596 44.277421115187 
56.112391158854 36.298578471285 44.261229198831 56.078598911526 36.314434497865 44.230921496721 56.065135064908 36.321368606509 44.218606506529 
56.028725232068 36.338491421792 44.185936157379 56.018709883497 36.343576408011 44.176803796448 55.980496616034  36.36155931557  44.14251058453 
55.973913280887  36.36486841316  44.13652062757 55.932928755783 36.384015190907 44.099794924228 55.930514356034 36.385212890616 44.097604315303 
55.911587581941  36.39403265491 44.080652929055 55.887811382103  36.40506339593 44.059377216648 55.884502301088 36.406509897057 44.056450602043 
55.844761664423 36.424965605792  44.02088224098 55.832588019243 36.430364757755 44.010085465443 55.801344602401 36.444971934334 43.982084308199 
55.774723294888 36.456978568178 43.958396341283 55.756116742897  36.46586769034 43.941646856789 55.738382199315  36.47441010241 43.925655204059 
55.709575658933 36.487304951933 43.900060605462 55.681352426952 36.500564579811  43.87474117397 55.663350990121 36.508631757016 43.858743377278 
55.629273638269 36.524841473353 43.828094553053 55.617259556784 36.530326224724 43.817378559143 55.580493615887 36.548382265745 43.784091248052 
55.572679264232 36.552101889857  43.77706211342 55.534021498869 36.572073320884 43.741678883618 55.530017663971 36.574090706331  43.73803403728 
 55.49383249003 36.593731834473 43.704546095242 55.491783832409 36.594842048869 43.702650837847  55.49156410931 36.594971502366  43.70244353535 
 55.45694638758 36.614908540206 43.669960811005 55.452460956284 36.617676266629 43.665680359199 55.423355664409 36.635635392703 43.637905240251 
55.419122092954 36.638370557552 43.633817422976 55.389296212741 36.658081913337  43.60484676212 55.385480815006 36.660589187905 43.601146300589 
55.384863322591 36.661000130474 43.600545405616 55.349803241479  36.68593305139 43.565806098853  55.34339587758 36.690538807806 43.559438259592 
 55.31035500106 36.716063074478 43.525912256749 55.296963593923 36.726558095653 43.512265935105 55.269126799032 36.750088542584 43.483233360814 
55.245027981738 36.770984261066 43.457895425644 55.226015577382 36.789212566575 43.437228460444 55.200075593237 36.816459898755 43.408107728238 
55.186298119892 36.830075953194 43.392973266172 55.171511269372 36.846343973839 43.376087416368 55.150573815849 36.869990655725 43.351940189123 
55.134046890209 36.890554095332 43.332142435226 55.118565730859 36.908951142007 43.313933471715 55.104645817172 36.927071418969 43.296947725713 
55.090337949705 36.946336755478 43.279239981111 55.074241961725 36.969676304461 43.258671916738 55.065038560599  36.98265199534 43.247054960157 
 55.05917860632 36.991566459423  43.23940476641 55.041480365943 37.020003226466 43.215711862632 55.027912243143 37.043410995259 43.196923795688 
55.018715061037 37.060755632276 43.183614334883 55.002030532271 37.094420442034 43.158615230984 54.996570007311  37.10662868694 43.149971140378 
54.978941575752 37.148234823355 43.121212990904  54.97541741356 37.157762545705 43.114993833743 54.958891101354 37.203723024151 43.085332018516 
54.956137758347 37.212766708669 43.079851719665 54.941799756237  37.25811830377 43.051990239338 54.939171459786 37.268179895875 43.046203935905 
54.927783142816 37.310162381235 43.021758997312 54.925384559495  37.32101167122 43.015830903517 54.915833071325 37.363276603496 42.992588916998 
54.914727413807 37.369034923583 42.989562180894 54.911089190821 37.390114423832 42.978774669812 54.905923081566 37.418276037486 42.964144507778 
54.904333238295 37.427571374796 42.959397938914 54.898945698246 37.470668890194 42.938808260542 54.895798157671 37.496390222742 42.926568466455 
54.893433642768  37.52577352328 42.913465897856 54.889746996183 37.567318028936 42.894694940053 54.889001550242 37.580287459685   42.8891247452 
54.886670896613 37.624262813303 42.870378655033 54.886004878636 37.635313135684 42.865610625581 54.885841144277 37.638878176512 42.864108913135 
54.884701315614 37.690488060933 42.843248486382 54.884780254259 37.719554230182 42.832015266676 54.885310371978 37.746146422918  42.82206539494 
54.887547754951 37.785320021804 42.808448828829 54.888274795476 37.804134167782 42.801660766665 54.889274058461 37.820755279959 42.795919042891 
 54.89236954689 37.862382327827 42.781962759302 54.896469588389 37.909357492961 42.766647092274 54.897118063793 37.918980531146  42.76337281607 
54.897942893032 37.927714910057 42.760569733463 54.903111422159 37.974834339969 42.745961608405 54.910960774436 38.028947077138 42.730553006531 
54.911044497091 38.029445882686 42.730419095699 54.911203106869 38.030152117571 42.730258133723 54.922081887471 38.083731070272 42.717221787967 
54.932243016475 38.118985801403 42.710789921777 54.937962643071 38.137789577057 42.707573752163 54.952393726179 38.177387583287 42.702506356621 
54.957345962409 38.191879002359 42.700416753368  54.95994171758 38.198697935255 42.699623213196  54.97847479091  38.24606498835 42.694469646993 
54.990116152589 38.273661356312 42.692070198929 55.001652122867 38.300406495109 42.689926061859  55.02188689708 38.344878324527 42.687113124443 
55.026515246507 38.354842544031 42.686550477108 55.047614400403 38.396799921719 42.685331895308 55.053672003162 38.409179996136 42.684852293333 
  55.0552637617 38.412098976062 42.684856050709 55.083503529348 38.463250151057 42.685169408251 55.090527286218 38.474753964033 42.685720601411 
 55.11625964729 38.516819704574 42.687770970979 55.127278582227 38.533221326749  42.68927488351 55.151591119533  38.56964282949 42.692502887148 
 55.16510870011 38.588474536894 42.694848540392 55.188681610073 38.621702497951 42.698788390277 55.203699567069 38.641699903233 42.701753491013 
55.226773513731 38.672876065348 42.706133707598 55.242976278902 38.693733655909 42.709611405063  55.26558123906  38.72332550263 42.714271834797 
 55.28319582122 38.745491093186 42.718250420536 55.304635593558 38.773636090726  42.72264014184 55.325263043287 38.799523907197 42.727326065841 
55.344049588754 38.824384279668 42.731095490677 55.368019640367 38.854455917196 42.736545102997 55.385171438422 38.877271785824 42.739940392718 
 55.40928728326 38.907573669214 42.745404763505 55.427884577517 38.932695737485 42.748937297629 55.448726764939 38.958960794962 42.753630155465 
55.469708248533 38.987839788305 42.757407276363 55.486073418728 39.008598243832 42.761039538925 55.508662319833 39.040599068451 42.764752817831 
55.520182639527 39.055436068871 42.767222753183 55.546743565629 39.093161406379 42.771551104374   55.5520594058 39.100271996301 42.772588142609 
55.564059631636 39.117764506228 42.774369604322 55.581481559268 39.144654671148 42.776375434263 55.592188965353 39.161854104021 42.777346839351 
55.612438976013 39.194299134077 42.779216136514 55.627790566431 39.215743353828 42.781857703309 55.650389462125 39.252613333155 42.783686889419 
55.670702816329 39.281434810237 42.787008883268 55.688271797067 39.310071894894 42.788441278585 55.710701954906 39.341294657888 42.792343322398 
55.727667895135 39.368369775487 42.793951451158  55.74885517478 39.396777102842 42.798058841069 55.770192784647 39.430010530448 42.800399149439 
55.786735213272 39.450249500887 42.804359860585 55.806528835044 39.474406710146 42.809122091561 55.822853243721 39.501891944986 42.810112466767 
55.854314686504 39.545096360222 42.815814750456 55.859679078699 39.554473670416 42.816006065528 55.887769423595  39.59217039176 42.821438504041 
55.898716560663 39.607261813928 42.823400004112 55.901976769901 39.610700641691 42.824394175861 55.935671964322  39.65739490877 42.830337272936 
55.964239705817 39.686624143585 42.839399743003 55.974192246423 39.699148383695 42.841647594858 55.983495345379 39.708857444441 42.844524782352 
56.014344632598 39.738390845905 42.855099577499 56.039668978922 39.760835411408 42.864479454737 56.056333255579 39.773894885331 42.871315840832 
56.091580010881 39.800267007127  42.88626108698 56.101058059624 39.806350213442 42.890671622527 56.141715848256 39.833427981236 42.909209688354 
56.148688038995 39.836996754407 42.912806090691 56.190638035858 39.859677764126 42.933975361613 56.201203584766 39.863489103526 42.940045479231 
56.236238214631  39.87764032217  42.95958587188 56.263490084964 39.883653040697  42.97672553743 56.278024673546 39.887499967317 42.985618237573 
56.289418780552 39.888904923557 42.993215136471 56.322229457651   39.8947195091 43.014404263479 56.345957555375 39.895677895043 43.030988886819 
 56.37674877266 39.898136298913 43.052038421339 56.403539784658 39.897579464007 43.071400432037 56.438662254137 39.898058154386 43.096314163742 
56.463750740964 39.895164071218 43.115367308404 56.501016537376 39.892117489767 43.143181987144 56.528523096155  39.88383627373 43.166055588655 
56.556069394307  39.87768833954 43.188128998202 56.589891433113 39.865241576402 43.217133793445 56.606862381241 39.859815364524 43.231369388279 
56.644119793515 39.843398885737  43.26437109614 56.653578742288 39.839410445564 43.272679924658 56.692498382829   39.8183898304 43.308657814081 
56.697496087351 39.815599844301  43.31331299893 56.735597659188 39.790068098909 43.350458444277 56.738291215917 39.788218506233 43.353101750538 
56.774307529818 39.758992654449 43.390191835733 56.775781567804  39.75777517114 43.391718115693 56.808684971326 39.725781901073 43.427658510596 
56.809445288905 39.725032663202 43.428492870838 56.837989938069 39.692522148665 43.461519261582 56.839087942726 39.691276664897 43.462787691577 
56.864443746472 39.658767436537 43.493534729969 56.865575326926 39.657184806218  43.49495810589 56.886195063015 39.630265132065 43.520149549456 
56.891232702496 39.623684047395 43.526305779076  56.90638890635 39.605458836344  43.54421577589 56.918940533985 39.591597852449 43.558569342085 
56.933521321049 39.575957597563 43.575064100849 56.959071892454 39.551746472747  43.60272724844 56.969126771659  39.54221262076 43.613615849484 
  56.9975066991 39.518956598977 43.642929974124 57.011638659104 39.507464295592 43.657492874756 57.035682775367 39.490335260855 43.681328695837 
57.056675303557 39.475308298562 43.702167283776 57.073041483746 39.464881518567 43.717912969468 57.102635661363 39.445346782469 43.746649447001 
57.110355484229 39.440716742783 43.753964644081 57.148374717182 39.416729836278 43.790451214327 57.149480451921 39.416044145613 43.791507738461 
57.149685323516 39.415911371209 43.791705717468 57.193480319831 39.390375537694 43.832921457236 57.197556954642 39.387928412109 43.836785244737 
57.206855776278 39.382419470786 43.845570221186 57.238024579034  39.36522035933 43.874524793859 57.254215947731 39.356436494674   43.8895074265 
57.274485336306 39.345374622992 43.908289148878 57.302110106102 39.331350143126 43.933477977044  57.31231128227 39.325999635037 43.942846268152 
57.346875831226 39.309465548138 43.973969248521 57.352437515367 39.306678942596 43.979026158526  57.39294693637 39.288405482299 44.015073130541 
57.395401222908 39.287224238477  44.01728585221 57.439249567559 39.268076964147 44.056058327143 
POLYGONS 1 438
437 0 1 2 3 4 5 6 7 8 9 10 11 12 13 14 15 16 17 18 19 20 21 22 23 24 25 26 27 28 29 30 31 32 33 34 35 36 37 38 39 40 41 42 43 44 45 46 47 48 49 50 51 52 53 54 55 56 57 58 59 60 61 62 63 64 65 66 67 68 69 70 71 72 73 74 75 76 77 78 79 80 81 82 83 84 85 86 87 88 89 90 91 92 93 94 95 96 97 98 99 100 101 102 103 104 105 106 107 108 109 110 111 112 113 114 115 116 117 118 119 120 121 122 123 124 125 126 127 128 129 130 131 132 133 134 135 136 137 138 139 140 141 142 143 144 145 146 147 148 149 150 151 152 153 154 155 156 157 158 159 160 161 162 163 164 165 166 167 168 169 170 171 172 173 174 175 176 177 178 179 180 181 182 183 184 185 186 187 188 189 190 191 192 193 194 195 196 197 198 199 200 201 202 203 204 205 206 207 208 209 210 211 212 213 214 215 216 217 218 219 220 221 222 223 224 225 226 227 228 229 230 231 232 233 234 235 236 237 238 239 240 241 242 243 244 245 246 247 248 249 250 251 252 253 254 255 256 257 258 259 260 261 262 263 264 265 266 267 268 269 270 271 272 273 274 275 276 277 278 279 280 281 282 283 284 285 286 287 288 289 290 291 292 293 294 295 296 297 298 299 300 301 302 303 304 305 306 307 308 309 310 311 312 313 314 315 316 317 318 319 320 321 322 323 324 325 326 327 328 329 330 331 332 333 334 335 336 337 338 339 340 341 342 343 344 345 346 347 348 349 350 351 352 353 354 355 356 357 358 359 360 361 362 363 364 365 366 367 368 369 370 371 372 373 374 375 376 377 378 379 380 381 382 383 384 385 386 387 388 389 390 391 392 393 394 395 396 397 398 399 400 401 402 403 404 405 406 407 408 409 410 411 412 413 414 415 416 417 418 419 420 421 422 423 424 425 426 427 428 429 430 431 432 433 434 435 436 

CELL_DATA 1
FIELD FieldData 6
ClosedSection 1 1 int
1 
SectionArea 1 1 double
        13.6221 
SectionLength 1 1 double
        13.7813 
SectionMinSize 1 1 double
        1.43595 
SectionMaxSize 1 1 double
        2.45734 
SectionShapeFactor 1 1 double
        0.58435 
