# vtk DataFile Version 4.2
vtk output
ASCII
DATASET POLYDATA
POINTS 347 double
28.367211075836 28.181408745813  26.62347757922 28.367706602431 28.179117469703 26.624602648247 28.369940400505  28.16858730884 26.629498187224 
28.379347495928 28.125493431052 26.651210047422 28.381600905923 28.115157698046 26.656399720098 28.391431475399 28.072264122008 26.680962674806 
28.395831158767  28.05344853883 26.692289836013 28.404027605395  28.01822989064 26.713246662675 28.410477169586 27.989739418385 26.729056036191 
28.416602650653 27.962968027566 26.744322675737 28.426011941835 27.919382425007 26.765617921501 28.429001122098 27.906038780546 26.772823262064 
28.440467003078 27.852270157603 26.798198259256 28.441006730246 27.849841609725 26.799482434511 28.441162419114 27.849101945827 26.799818609857 
28.452679267149 27.796675990481 26.826691104468 28.455825742737  27.78154466997 26.833325271605 28.463980015753 27.743903494834 26.851894782188 
28.469466616367 27.717100475775 26.863096941568 28.474965905306  27.69110325046 26.875084717809 28.482168267328 27.655377679109 26.889316588557 
28.485635812163 27.638607352064 26.896544549234 28.493919273029 27.596965717344 26.912428071006 28.496300109855 27.585200083353 26.917171065016 
 28.50496834301 27.541433428401 26.933625401877 28.507562573732 27.528201250269 26.938432823578 28.515607968714  27.48617814633 26.952478153493 
28.519283335386 27.466548097154 26.958515654335  28.52583059159 27.430075749164 26.967954436057 28.530836195666 27.401673206829 26.974717071721 
28.535108784875 27.376214259882 26.979425143066 28.541218316876 27.338563073484 26.985066114374 28.543095803993 27.326406946576 26.986286810529 
28.546975497355  27.30062798679 26.988232193924 28.550354340657 27.279141259582 26.990770641555 28.552428220074 27.265054653976 26.991542181136 
28.557410616016  27.23114312389 26.993335242659 28.562549806024 27.192362469169 26.991856259412 28.564264858261  27.18017299465 26.992021409824 
28.565707478125 27.168907130073 26.991273775105 28.570951583602 27.127843822144 26.988459318522 28.575962680734 27.084514598351 26.982188856961 
28.577041191366 27.075693327418 26.981280743199 28.577906709644 27.067852105186 26.979884828586 28.582795966019 27.023542051757 26.971985828303 
28.587512433814 26.975780447974  26.95997334102 28.587929780394 26.971769124601 26.959098583346 28.588258905748 26.968159028552 26.958017657435 
28.592638096397 26.920277666962 26.943769227609 28.596545515389 26.869899063255 26.924353639323 28.596613705601 26.869022477976 26.924017081008 
 28.59667373328 26.868064160354   26.9235573935 28.600012142079 26.818118834157 26.900925812248 28.602234636143 26.773982433842 26.876328799169 
28.602576007092  26.76732950775 26.872661352624 28.602835874176 26.759790336521  26.86770304309 28.604465190387 26.716970980045 26.840511040321 
28.605131729264 26.685394591468 26.817078530476 28.605530129137 26.666726387843 26.803252453842 28.605624520333 26.637639461035  26.77838424654 
28.605763334613 26.617589105905 26.761707941404 28.605632051352 26.606728934571 26.751370709983 28.605123301693 26.570695651954 26.716610234171 
28.604006321223 26.537270728185 26.680290158628 28.603628958516 26.526703459777 26.668654491376 28.602519507079 26.506121388966 26.643625472182 
 28.60149278912  26.48559122902 26.619164653857 28.600894853387 26.477005927804 26.607870432779 28.598817567994  26.44722542007 26.568673196753 
28.596877274819 26.425729043819 26.537594028557 28.595622521332 26.411635986272 26.517327824649 28.592235878917 26.380868708487 26.468993482078 
28.591994300061 26.378639913819 26.465515822354 28.591136681515 26.371992543133 26.454277378137 28.588079889638 26.347495751705  26.41351680783 
28.587045428267 26.340392716496 26.400762056529 28.583879671949 26.318085578795  26.36122995807 28.581322310708 26.302266621313 26.331222209881 
28.579424479003 26.290154852584 26.308627242937 28.574968539889 26.265357694617 26.258763146246 28.574615470827 26.263322711317 26.254750706671 
28.573490163055  26.25767337172 26.242694600278 28.569506022847 26.237138995117 26.199543504186 28.568031272508 26.230539040062 26.184447199777 
28.564015667374 26.211809144707 26.142677053706 28.560767739696  26.19870114723 26.110679288819 28.558132672066 26.187596019657 26.084307348648 
28.553275612119 26.169849161108  26.03808105349 28.551917325977 26.164687460693 26.024979775938 28.545570210006 26.143701883274 25.966503115523 
28.545427564743 26.143210579455 25.965171686048 28.544658614965 26.140908470404 25.958297628605 28.538742790563 26.122920429381 25.905170342403 
28.537563773295 26.119818074973 25.895004669977 28.531862857208 26.104157883455 25.845273243827  28.52911832462 26.097706733913  25.82228404564 
28.524760406293 26.086976051454 25.785354021123 28.520074863095 26.077216853111 25.747204387779 28.517421147866 26.071443111218 25.725382070075 
28.510285977681 26.058628488615 25.669079453685 28.509754787279 26.057636684748 25.664854815925 28.507808787768 26.054731161557 25.650015255778 
28.501771223409 26.045407587771 25.603704199306 28.500017216815 26.043277239821 25.590756393524 28.493437634238 26.035059027509 25.541988280717 
28.489685365229 26.031464637619 25.515132657755 28.484772109498 26.026673007262 25.479893151955 28.479417244853 26.022945016116 25.442794503437 
28.475807260201 26.020388849498  25.41774683905 28.469510930498 26.017605295586 25.375526330243 28.466907797006 26.016414028347 25.358035416929 
28.459821578661 26.014924883226  25.31195717752  28.45813596358  26.01455791302 25.300985283784 28.451675883505 26.014083851688 25.259751994676 
 28.44960845018 26.013887858255 25.246517252068 28.448772425159 26.013966884655 25.241303980757 28.441039674228 26.013958926473 25.192437329458 
28.433675837265  26.01495145588 25.146777568339 28.431919958063 26.015317079596 25.136003069276 28.427662654506 26.016518885708 25.110155273656 
28.422751596682 26.017671238753 25.080133412057 28.420384857353 26.018455101135 25.065865323609 28.413815063874 26.020877682954 25.026474719356 
28.404368478558  26.02535974871 24.970710003837 28.404340080823 26.025370720212 24.970540176837 28.404319696635 26.025380463763 24.970419908708 
28.394061156423 26.030937179559 24.910465644754 28.387115031296 26.035128492467 24.870245638819 28.382690504852 26.038247627832 24.845019795936 
 28.37160360867 26.046937709793 24.782574689136 28.370367921289 26.048208910148 24.775879843855 28.357911960671  26.06061634447 24.708038667159 
28.357032220732 26.061651197382 24.703385975277 28.344890066441 26.075514309326 24.638801992506 28.343887610328 26.076826957002 24.633617113692 
28.332434278435 26.091448922692 24.574049832549 28.331161718855 26.093306545887 24.567635402247  28.32001395584 26.109308339786  24.51120686279 
28.318224468881 26.112245505194 24.502471309694 28.307445453641 26.129891457675 24.449812122532  28.30493549455 26.134538482651 24.438021162841 
28.294658568104 26.153605403177  24.38977845255 28.291187569523 26.160812894094 24.374156729298  28.28184662161 26.180296228155 24.332192591347 
28.277040976848 26.191369052743  24.31152182391 28.269147970704 26.209668817169 24.277670386492 28.262715067162 26.226005512038 24.251326062447 
28.256741997941 26.241262972621 24.226942386093 28.248447255951  26.26429681201 24.194697087968 28.244656842789 26.274910262696 24.180038934111 
28.234422062105 26.305884670796 24.142487126504 28.232827834037 26.310741586563   24.1366660008 28.223725211696 26.340455339401 24.105164118141 
28.221221732494 26.348544329513 24.096427426069 28.220808831494 26.349956858093 24.095055116267 28.209148229578 26.390470442543 24.056845428974 
28.207467645121 26.396435248914 24.051448577893 28.195558801051 26.439869111092 24.014226967493 28.193836832728 26.446150767142 24.008846022055 
28.190274830281 26.460049769947 23.998507479963 28.181634784904 26.492880892576 23.972657559573 28.176260841584 26.514480803098 23.957612083908 
28.170393558293 26.537684371535 23.940853368983 28.161303666753 26.575237941077 23.916295421037 28.158580493037 26.586534375429 23.908978589786 
28.147222190682 26.635137927184 23.879761486953 28.145372424749 26.643128127012 23.875068819753 28.132466791535 26.699977723474 23.843293980914 
28.130907881235 26.706981837092 23.839575811057 28.117072496009 26.771034250658 23.808232121396 28.116946679825 26.771627375058 23.807956407372 
28.116372896362 26.774416532657 23.806772747732 28.103640022432 26.835495049328 23.779791771845 28.100398695936 26.851481983804 23.773307346713 
28.091064713502 26.897771188026 23.754854854085 28.085188727232 26.927688360294 23.743918682384 28.079406379553 26.957326455365 23.733329847069 
28.071519823893  26.99880729349 23.719813414118 28.068316317055 27.015849741376 23.714492020282  28.05886553517 27.067625194542  23.70010455143 
28.057664308424  27.07426639554  23.69832870113 28.050202045283 27.116815721168 23.688428601486 28.047234873599 27.133561877469 23.684341107142 
28.046768765331 27.136279509197 23.683775178884 28.036962847405 27.193887153062 23.672249655201 28.034838407767 27.206861582562 23.670184976316 
28.026732695907 27.256344400832 23.662289259756 28.022787516887 27.281425808186 23.659319419127 28.016567933955 27.320673902754 23.654381125926 
 28.01060762432 27.360023886337 23.651170261411 28.006948416457 27.383989535801 23.649030532203 27.998421168889  27.44271858798 23.646566091452 
27.997963946248 27.445817157001 23.646389805097 27.996138581886 27.458765938169 23.646192390599 27.988730253737 27.510935590979 23.645055352705 
27.986898884071  27.52435182816 23.645229235408 27.979391917663 27.578570533824  23.64526282442 27.976232761922 27.602424276426 23.646184723096 
27.970180334046  27.64721457607 23.647154618841 27.964234069776 27.693490142489 23.650095614298  27.96156013576 27.714876405571 23.651923210152 
27.954521185829 27.771642692342 23.657144300468 27.953256773202 27.782077526822  23.65829040569  27.94652253986  27.83763945633 23.664382485395 
27.945738670331 27.844301472086 23.665261945341 27.939832452953  27.89437608424 23.671781914813 27.939248533871 27.899436491177 23.672522614943 
27.935464179661 27.932211733045 23.677304644231 27.933425595903 27.949782262241 23.679806179033 27.933039994036 27.953126158433 23.680297206947 
27.927918920991  27.99823916009 23.687434418722  27.92502923316 28.024165760831 23.691873678023 27.922204358132 28.049955952348 23.696603037843 
27.917035277763 28.098555813202 23.706489540916 27.916313643567 28.105208005339 23.707753636961 27.915856750071 28.109550959174  23.70866884719 
27.910388866635 28.162661431304 23.720616239376 27.904705578072 28.220266826057 23.735137738871 27.904384173565  28.22361309945 23.736036481431 
27.903991044602 28.228090652098 23.737472427022 27.898533248527 28.288646992366 23.756002162579 27.895591185044 28.322851035778 23.767357105704 
27.892996873643 28.355306100631 23.779378162099 27.888420836294 28.415008072155 23.802731353112 27.888115792903 28.419320827292 23.804579596127 
27.887101542688 28.434451505287 23.811417414519 27.883946958013 28.481075256228 23.832302568653 27.883155979805 28.493409786897 23.838103207298 
27.880468826098 28.539689333023 23.861640502297  27.87919327977 28.563125030231 23.874098074883 27.877700320196 28.594096799231  23.89177948975 
27.876305713471 28.625689133116 23.910625634471 27.875583475386 28.644942666072 23.922917962964 27.874202894531 28.684792757256 23.949082118203 
27.873979133369 28.692856476721 23.954727788647 27.873200886981 28.724477811239 23.977493818941 27.872801098332 28.739989663301 23.988547841387 
27.872711451492 28.743687444067 23.991218686512 27.872034969568  28.78503510587 24.023142790406 27.871830923619 28.798420195763 24.033571712209 
27.871686039265 28.828060360873 24.058605217987 27.871635868126  28.84277826614 24.071173238527 27.871864933879 28.873555328596 24.099564877657 
27.871900872036 28.879751781075 24.105216739079 27.872113992787 28.890982912335  24.11639582671 27.872675253834 28.917343969387 24.143020391051 
27.873324981683 28.934309395133  24.16197837851 27.874048408316 28.956062264371 24.185593279597 27.875801265604 28.989505170272 24.225946910019 
27.876092540965 28.994903451064  24.23251335704  27.87632990319 28.997846533597 24.236589708717 27.878812155909  29.03195254203 24.282132576089 
27.880876637243 29.052320242861 24.313008314744 27.882228278888 29.067211934998 24.334585887807 27.886222352487 29.099094231131  24.38773446857 
27.886292251224 29.099716652267   24.3887210351  27.88656323203 29.101440668651 24.391942555847 27.890989015336 29.129948816655 24.444864958305 
27.892636498153 29.137634931605 24.462003575809 27.896483295007 29.156478734806 24.502806822743 27.899879456062 29.168944494682   24.5351789486 
27.902691171088 29.179556566826 24.562235388765 27.907717783834  29.19418209092 24.606800386954 27.909457845865 29.199380703836 24.622346245793 
27.915934897823  29.21453486683  24.67653870542 27.916662993763 29.216280577121    24.682667518 27.922312150145  29.22711751522 24.727849303056 
27.924157150514 29.230771869857  24.74270627287 27.924405794652  29.23116964381 24.744625578079 27.931881418566 29.242880805342 24.802113321564 
27.933149553373 29.244427255666 24.811479945129 27.939890905488 29.252250370298  24.86092431031 27.942315633714 29.254337211451 24.878072007788 
27.948207488746 29.258983558761 24.919367640517 27.952003297273 29.261025360484 24.945139131117 27.956833486639 29.263218740527 24.977579098531 
27.962201027587 29.264835768842 25.012909766113 27.965710323153 29.265641447705 25.035788729749 27.972771986242  29.26656495049 25.081216615073 
 27.97482483248 29.266649160181 25.094261325728 27.983578758148 29.266263292295  25.14923552746  27.98409370877 29.266194923837 25.152429408495 
27.987308931888 29.265568307638 25.172196338122   27.9933668118 29.265054860083 25.210023779359  27.99431503731 29.264965197039 25.215936681752 
28.002304505486 29.263089122055 25.264776003453 28.004665981071 29.262515537824 25.279194924145 28.010862143672 29.259896678492 25.316052892997 
 28.01428136446 29.258265597484  25.33622941474 28.018895078424 29.255849171162 25.363265844273 28.022157571631 29.254852709968  25.38300766498 
28.029016607877  29.25070411435  25.42271479401 28.031083984149 29.250105728572 25.435253723974 28.040446614768 29.243727266067 25.488827737226 
28.040933766108 29.243576387191 25.491773732346 28.044658907994 29.241062334755  25.51311021666 28.051511054438 29.237092675745 25.552930465171 
 28.05247671702 29.236246072979 25.558290869218 28.062469704036 29.229971436896  25.61593871014 28.064830572017  29.22780989842 25.628963591377 
28.073862821068 29.221694557926 25.680680430416 28.077569563519 29.218208561642 25.701049753191 28.085518766783 29.212868207976 25.746601800553 
28.090774823608 29.207490418143 25.775104324455 28.097708394684 29.202243844444 25.814321161965 28.105225303726 29.193344607693 25.854026059761 
28.110719034709  29.18882550806 25.884782091229 28.121991082777 29.172584972959 25.941786920714 28.125214437049 29.169918626514 25.959819512434 
28.129934543178 29.161977644625 25.982691623199  28.13982968575 29.144410993109  26.02983545223 28.150874711232 29.121082776046 26.079200804678 
28.153690575225  29.11476440443 26.091461428742 28.162277208145  29.09354708073 26.127141349052 28.167418472005 29.082011274498 26.149527413882 
28.169232278539 29.077473667251 26.157015498393  28.18077433865 29.046902735642 26.203180631373 28.186356319196 29.031144459848 26.224654752099 
28.193914829055 29.008469141866 26.252562012562 28.202350987685 28.981970123098 26.282667209699 28.206896761139 28.966590953965 26.297925911128 
28.217332666248 28.930034512878 26.331861649856   28.2198031864 28.920782472887 26.339371878036 28.231616890846 28.874771320176 26.373736014274 
28.232754752961 28.869984452683  26.37673489905 28.245021133515 28.815533071737 26.406570152026 28.245292822188 28.814273379455 26.407184009322 
28.247695062798 28.802306683362 26.411886220888 28.256959901466 28.757301540488 26.431025978299 28.258290746341 28.750244303857 26.433256600591 
28.268190088174 28.701647153798 26.453260809723 28.273105871972 28.675912822875  26.46179184145 28.279288135697 28.646979008363  26.47552413552 
 28.28921404756 28.595997071341 26.493608427995 28.290407646949 28.590427774865 26.496274500735 28.293297343486 28.575299287244 26.501288679661 
28.301568689657 28.534356025487 26.517707056205 28.304500359264  28.51759132203 26.521553991906 28.312275898826 28.476160405144 26.534412669727 
28.317422629883 28.445602785145 26.540180323965 28.322704225064 28.416129320801 26.547749264001 28.329069142403 28.378063261271 26.554640689987 
28.333209879961  28.35515285856 26.560746815976 28.340756220232 28.313254243081 26.571747834946 28.344413072614 28.294181187538 26.578155981638 
28.353506100179 28.248284523134 26.595429647009 28.356135905388 28.235553447759 26.600900546007 
POLYGONS 1 348
347 0 1 2 3 4 5 6 7 8 9 10 11 12 13 14 15 16 17 18 19 20 21 22 23 24 25 26 27 28 29 30 31 32 33 34 35 36 37 38 39 40 41 42 43 44 45 46 47 48 49 50 51 52 53 54 55 56 57 58 59 60 61 62 63 64 65 66 67 68 69 70 71 72 73 74 75 76 77 78 79 80 81 82 83 84 85 86 87 88 89 90 91 92 93 94 95 96 97 98 99 100 101 102 103 104 105 106 107 108 109 110 111 112 113 114 115 116 117 118 119 120 121 122 123 124 125 126 127 128 129 130 131 132 133 134 135 136 137 138 139 140 141 142 143 144 145 146 147 148 149 150 151 152 153 154 155 156 157 158 159 160 161 162 163 164 165 166 167 168 169 170 171 172 173 174 175 176 177 178 179 180 181 182 183 184 185 186 187 188 189 190 191 192 193 194 195 196 197 198 199 200 201 202 203 204 205 206 207 208 209 210 211 212 213 214 215 216 217 218 219 220 221 222 223 224 225 226 227 228 229 230 231 232 233 234 235 236 237 238 239 240 241 242 243 244 245 246 247 248 249 250 251 252 253 254 255 256 257 258 259 260 261 262 263 264 265 266 267 268 269 270 271 272 273 274 275 276 277 278 279 280 281 282 283 284 285 286 287 288 289 290 291 292 293 294 295 296 297 298 299 300 301 302 303 304 305 306 307 308 309 310 311 312 313 314 315 316 317 318 319 320 321 322 323 324 325 326 327 328 329 330 331 332 333 334 335 336 337 338 339 340 341 342 343 344 345 346 

CELL_DATA 1
FIELD FieldData 6
ClosedSection 1 1 int
1 
SectionArea 1 1 double
        8.80109 
SectionLength 1 1 double
        10.7114 
SectionMinSize 1 1 double
        1.36038 
SectionMaxSize 1 1 double
        1.83912 
SectionShapeFactor 1 1 double
       0.739693 
