# vtk DataFile Version 4.2
vtk output
ASCII
DATASET POLYDATA
POINTS 288 double
31.165008772533 16.733608926051 39.260305207338 31.149876520891 16.725211649272 39.276935728116 31.136392527118 16.717939822488  39.29238898495 
31.111673346915 16.704726288421 39.321071338972 31.075662407664 16.685897915785 39.364122849677 31.071629270451 16.683858847795 39.369154107434 
31.061877556268 16.678846173775  39.38107121528 31.030776609852 16.662260557579 39.417276642845 31.016120263814 16.654462856921 39.434393490858 
30.989515854908 16.640845449627  39.46708015469 30.967808747335 16.630440191883 39.495872436425 30.948265354108  16.62009013871 39.518840374638 
30.918477925396 16.605560397853 39.557594619206 30.907752980406 16.600040103415 39.570678951087 30.874357242541 16.584276362912  39.61571044729 
 30.86847125054 16.581378305883 39.623287101126 30.834149537675 16.565789902339 39.671409768429 30.830954894209 16.564285465746 39.675728100179 
30.795984579146 16.548991353836 39.726531900271 30.794408760049 16.548288736663 39.728780766557 30.760083514657 16.534135106577 39.781229943527 
30.759423667671 16.533861949738 39.782234955301 30.726617454014 16.521396931601 39.835558998894 30.726424236766 16.521324943769 39.835877351836 
30.707192575212 16.514854410767 39.869654347327 30.695636393253 16.510955580102 39.889918447497 30.695530608324 16.510922933009 39.890113098798 
30.667038316245 16.502575797615 39.943882931941 30.666063816746 16.502312909894 39.945789983218 30.639536898513 16.495646765455 39.999176016449 
30.637011478415 16.495048031941 40.004366486618  30.61182195508 16.489089886451 40.056179943936 30.606538326035 16.487935552171 40.067335152099 
30.584514717139 16.482879568012 40.113097781729 30.571849930723 16.480933743658 40.142307061716 30.560718501748 16.478832790258 40.166804377066 
30.539719608285 16.475844356355 40.215950524074  30.53788933371 16.475485475518 40.219938054819 30.537066432776 16.475362341181 40.221845860911 
30.515242308342  16.47244719768 40.273497237992 30.507594889447 16.471897614924  40.29301629259 30.493406058869 16.470913997943 40.329339967873 
30.481108788882 16.471043642888 40.363776104468 30.472121177195 16.471061357122 40.388712398894 30.458159777145 16.472677205039 40.432227289777 
30.452629022815 16.473757940155 40.450791225198 30.440131770464 16.478837370356 40.500673196526 30.435805131829 16.481516105588 40.520711252317 
30.426068533686 16.488108963028 40.567503479273 30.419336991822 16.497273360711 40.613712803579 30.414654610831 16.502860980692 40.643487576411 
30.413847498485  16.50951531324 40.665742688535 30.411786185794 16.528703165415 40.729179125092 30.411906793943 16.533046034543 40.741911379081 
30.412928033815 16.552878384117 40.798752562386 30.412933942453 16.552926453705 40.798880828308 30.415342454901 16.571566727826 40.848294688214 
30.418929447233 16.585371476214 40.879897423174 30.421840092472 16.596656540339 40.905791839704  30.43230541524 16.623801028685 40.958485901653 
30.433558134567 16.626886287285 40.964300097134 30.442764442946 16.645330104674 40.994302587955 30.450766891027 16.661683767765 41.021349532194 
30.452757950251 16.665072553611 41.026032775221 30.472419038252 16.698483406283 41.072120837136 30.484051825682  16.71560175125 41.091417524804 
30.499120378013 16.738109046813 41.117415453386 30.515026854449 16.759171330224 41.136745980722 30.533622935572 16.783323590279 41.157926754165 
30.558007263452 16.813432823692 41.181004695312 30.572705085649 16.831319070255 41.194125909197 30.601741271411 16.865768153238 41.217381853563 
30.614863407747 16.881168168175 41.227385295237 30.644989366232 16.915961869916 41.248660944199 30.658731200231 16.931683438288 41.257916139419 
30.687945465827 16.964795305336 41.276655840783 30.704132255571 16.982947337746 41.286454372506 30.729949094759 17.011728802995 41.301571491097 
 30.75049535537 17.034386781718  41.31285725215 30.769488723723 17.055329147839 41.323280656949  30.79486966804 17.083042063987 41.336389700024 
30.805784812912 17.094946517221  41.34198647513 30.833440831644 17.124906889949 41.355558581016  30.83741308642 17.129199079517 41.357474733384 
30.863261845265 17.157129157041 41.369941952858 30.885982787584 17.181449409009 41.380208111638 30.901576352671 17.198205276669 41.387448468827 
30.940339264603 17.239220627123 41.403530704068 30.946470408868 17.245702622409   41.4060581363 30.991930580981 17.293423230165 41.423772178765 
30.994162327484 17.295761123327 41.424627290661 31.020460547334 17.323083106876 41.434020596298 31.040530073816  17.34396494816  41.44128246408 
31.042209761191 17.345696479139 41.441841669635 31.084953828554 17.389586894105 41.455551783283 31.091231036941 17.395963615634 41.457358092293 
31.128554079141 17.433722836283 41.467630183059 31.140314196441 17.445461392732 41.470388452024 31.171679022593 17.476648804057 41.477384124578 
31.190191069604 17.494771063499  41.48065539932 31.214673640465 17.518621074487 41.484629543554  31.24116273738 17.543959849472 41.487527610924 
31.257556711757 17.559566984848 41.489095832048 31.291925088218 17.591640252562 41.490441140532 31.299933618777 17.599078633365 41.490648290838 
31.340454953877 17.635990412036 41.489515969251 31.340817905812 17.636319541247 41.489501338921 31.343883747328  17.63904442946  41.48921151717 
31.381467884837 17.672508173583 41.485837161831 31.385810393795 17.676292508473 41.485200276313 31.423631159454 17.709052805898 41.479054370876 
31.427898862566 17.712674648443 41.478135709555 31.467546005486 17.745909965109 41.468362483109 31.469169583942 17.747239924543 41.467868843398 
31.489964249968 17.764121151154 41.461086653317 31.510616178536 17.780908560582 41.454417381561  31.51222396315 17.782205046137 41.453866757351 
31.549873898598 17.812024184181 41.439344894605 31.555298092858 17.816257216767   41.4370632414 31.585250669507 17.839300522611 41.423466097893 
31.599103562679 17.849808495106 41.416727936581 31.617760071204 17.863915586028 41.407519024578 31.633917333857 17.875656911722   41.3981117391 
31.656641772964 17.892366387756  41.38547006424 31.692310968438 17.916771383341  41.36014280181 31.701186859217 17.922897129966 41.353999333229 
31.741402621648 17.949312566414 41.322133208373 31.746329440161  17.95253656064 41.318192741824  31.78581008195 17.977431851554 41.283788279384 
31.790715038454 17.980507242728  41.27946124533 31.825298162378 18.001598704882 41.247171609486 31.842068498607 18.011705977575 41.231150683815 
 31.86520357118 18.025307624298  41.20802176669 31.888617875706 18.038206864906 41.182006477822 31.905300299185 18.047854838812 41.164847077602 
31.934209130623 18.063561362733 41.132065834403  31.94123624387 18.067394838641 41.124144232352 31.944387406283 18.069005091817 41.120264646686 
 31.97449678516 18.084963574604 41.084917637395 31.988710579077 18.092023797544 41.066807222597 32.001631185319 18.098600999596 41.050823872091 
32.018280790723 18.106789241026 41.029363509141 32.035901010926 18.115373462961 41.006407279506 32.048591887545 18.121319491913 40.989160977561 
32.077073680214 18.134408467821 40.949686746105 32.079107616514 18.135318468407  40.94679348566 32.083876111888 18.137392731049 40.939832212094 
32.109905130337 18.149186053013 40.903250535391 32.121556147684 18.154307605691 40.886402616269 32.139578249733 18.162033747252 40.859752078618 
32.165882723311 18.172920735965 40.819680941491 32.168664394404 18.174048964578 40.815374082595 32.173789238161 18.176035628899 40.807162674397 
32.197696479249 18.185885270449 40.770607474239 32.210525367471 18.190898450969 40.750172461564 32.226303941902 18.196890933544 40.724517357547 
 32.25298036863 18.206237224812 40.678781017563   32.2542603462  18.20666637461  40.67652844742 32.256948166494 18.207456845246  40.67146522761 
32.281812856245 18.215522616417 40.626892206466  32.29300240244 18.218638354058 40.605287117911 32.308512100368 18.222689638028 40.574536037294 
32.329910589994  18.22720049072  40.52886399652 32.334712778292 18.228125246205 40.518350977692  32.34906585223 18.230026041289 40.484332046999 
32.361101652159 18.232100915321 40.457252436948 32.364662172561 18.232594331311 40.448879336509 32.387881227171 18.234624876868 40.390704527148 
32.396350365761 18.235182203518   40.3689337675 32.415669806445 18.233547018678 40.310526488831 32.417552931735 18.233519273865 40.305229415376 
 32.42633370555  18.23259776415  40.27814656665 32.437777437112 18.231694919925  40.24374724159 32.439757402979 18.231358002822 40.237251865565 
32.457187249985 18.229479214096 40.183343175696 32.460441651875 18.228865214323 40.172485766263  32.47657980111 18.226774631331 40.121516041432 
32.480156398962 18.226026958219 40.109364427821 32.495871992046  18.22345123045 40.058104956806 32.498870005824 18.222619730658 40.047302999372 
32.514247324639 18.218970978645 39.993751717423 32.516302081145 18.218150330713 39.985593900679  32.53099429293 18.212875872775 39.929048219883 
32.532138796539 18.212201964202 39.923852006061 32.545545366582 18.204857564098 39.864638009059 32.546091902616  18.20436977375 39.861657285787 
32.557575389409 18.194700086451 39.800771542276  32.55788507693 18.194302777188 39.798718780893 32.567471646087 18.182746063347 39.737407421482 
32.567766340936  18.18223359757 39.735049703121 32.575740175107  18.16940032491 39.674362626013 32.576111765281 18.168560635878 39.670807516261 
32.582826030439 18.155012405762 39.611456611511 32.583308128041 18.153699027185 39.606170386644 32.589202461542 18.139963452565 39.548525881433 
32.589745937363 18.138137139678 39.541526486301 32.594821597261 18.124252319421 39.485699523708 32.595364419563 18.121874866733 39.477043751753 
32.599614772897 18.107715808735 39.422676638366  32.60010467136 18.104878607938 39.412784170114 32.603666627698 18.090251926759 39.358916030784 
32.604036163819 18.087185560114 39.348667316758 32.606870114281 18.071554706976 39.293793525303 32.607104755413 18.068321575936 39.283416544482 
32.609126570345 18.051188793715  39.22627244488 32.609222627003 18.047866111001 39.216009717904 32.610223672841 18.029709766883  39.15861216954 
32.609829139923 18.024827386467 39.145015100488 32.609079346021   18.0071122719 39.093792411716 32.606994065589 17.996443442757 39.067466934347 
32.605342725434 17.983153595159 39.032054330678 32.599777077372 17.962452545457 38.985181130045 32.598816822383 17.957798661419 38.973837777993 
32.595323097285 17.947704541285  38.95314080197 32.590772340796 17.932013015359 38.918529682265 32.586343155975 17.921402420452 38.898868718045 
32.580221395895 17.904889837941 38.866136789869 32.569843748485 17.883744685583 38.831249886413 32.566352013333 17.875826673438 38.817094545908 
32.560798528163 17.865652934544 38.801860653076 32.550306973668 17.845454385261 38.770137107747 32.541012393373 17.830350688914 38.750428256964 
 32.53095705569  17.81293789441 38.725878364768 32.509954844359 17.781091190676 38.688209296449 32.508098993908  17.77815310618 38.684507718078 
32.500993299646 17.768101788235 38.673939575165 32.482541191009 17.741639649138 38.645410586162 32.476491703974 17.733697510392 38.638264019677 
32.453500716462 17.702979276724 38.609496224455 32.440735420592 17.687164066911 38.597255662765 32.420826801958 17.662250668722  38.57741876821 
32.402992601758 17.641319904748 38.563821010559 32.384396656226 17.619549615126 38.549806374388  32.36338742833 17.596200467667 38.537722895202 
32.344162044311 17.575043041844 38.527294807179 32.322306696395 17.551966433833 38.518373861666 32.300111699745 17.528905817747 38.510441377825 
32.280139662526 17.508841068292 38.505367944808 32.252304218862 17.481514937639 38.500218102185 32.237112373578 17.466989566649 38.498576329468 
32.201360317778 17.433509139756 38.496828211829 32.193599931092  17.42638912484 38.496891904411 32.157161613272 17.393586966074 38.499084434557 
32.149844321224 17.386960396782 38.499405985033 32.148350966183 17.385628249068 38.499532505932  32.10591908632 17.348401001521 38.505005204731 
32.094446129186 17.338448007003 38.506824036326   32.0619449083 17.310636669549  38.51313199405 32.039071950777 17.291356677669 38.518451075671 
32.017837258303 17.273646329031 38.523956980867 31.981207601317 17.243677437893 38.535203557901 31.973600486493 17.237504621709 38.537692692166 
31.953384473076 17.221526960581  38.54559134256 31.928856160129 17.201922231246 38.554516401219 31.919446382565 17.194624064439 38.558610581957 
31.883555256146 17.166891101928 38.574539595899 31.851577345845 17.143037532704 38.591306256887 31.836445310184 17.131766709207 38.599290686596 
31.808598540532 17.111827701482 38.616397460082 31.786299189224 17.095560682548 38.629193439797 31.774759676288  17.08744471433 38.636723504137 
31.734054537434 17.058900154561 38.663538726445 31.702703658371 17.038030287054  38.68754630677 31.676637707242 17.021154764373 38.708939677384 
31.645840369024 17.001662173564 38.735558472873 31.621276315175 16.986473075322 38.757867566917  31.59495149494  16.97050319199 38.782702390373 
31.570240425289 16.955881900916 38.807126843079  31.54873439551  16.94332754204 38.828896532432 31.523003187536 16.928572883887  38.85574407367 
 31.50501892715  16.91836575124 38.874825412282 31.478383093686 16.903490686181 38.903815227162 31.463209726474  16.89502460308 38.920352565971 
31.435772298283 16.879970705348 38.951023622087 31.422812981727 16.872799971774 38.965328417574 31.394860327103 16.857628050818 38.997070833238 
31.383728253944 16.851491238794 39.009427450547 31.355606172922 16.836341235275 39.041704880061 31.346249925698  16.83117962921 39.052079018395 
31.319222452021 16.816685369565 39.083298833652 31.311068427477 16.812221580138 39.092443997324 31.286768691183 16.799182494514 39.120489937869 
31.277812261887 16.794289924703 39.130566580504 31.258807419095 16.783901697584 39.151928642167 31.231907145818 16.769498676396 39.183070796339 
31.224612647871 16.765432957981 39.191033940446 31.216744689136  16.76123015275 39.200172315411 31.188128601444 16.745762907033 39.232862975737 

POLYGONS 1 289
288 0 1 2 3 4 5 6 7 8 9 10 11 12 13 14 15 16 17 18 19 20 21 22 23 24 25 26 27 28 29 30 31 32 33 34 35 36 37 38 39 40 41 42 43 44 45 46 47 48 49 50 51 52 53 54 55 56 57 58 59 60 61 62 63 64 65 66 67 68 69 70 71 72 73 74 75 76 77 78 79 80 81 82 83 84 85 86 87 88 89 90 91 92 93 94 95 96 97 98 99 100 101 102 103 104 105 106 107 108 109 110 111 112 113 114 115 116 117 118 119 120 121 122 123 124 125 126 127 128 129 130 131 132 133 134 135 136 137 138 139 140 141 142 143 144 145 146 147 148 149 150 151 152 153 154 155 156 157 158 159 160 161 162 163 164 165 166 167 168 169 170 171 172 173 174 175 176 177 178 179 180 181 182 183 184 185 186 187 188 189 190 191 192 193 194 195 196 197 198 199 200 201 202 203 204 205 206 207 208 209 210 211 212 213 214 215 216 217 218 219 220 221 222 223 224 225 226 227 228 229 230 231 232 233 234 235 236 237 238 239 240 241 242 243 244 245 246 247 248 249 250 251 252 253 254 255 256 257 258 259 260 261 262 263 264 265 266 267 268 269 270 271 272 273 274 275 276 277 278 279 280 281 282 283 284 285 286 287 

CELL_DATA 1
FIELD FieldData 6
ClosedSection 1 1 int
1 
SectionArea 1 1 double
        6.12615 
SectionLength 1 1 double
         9.0922 
SectionMinSize 1 1 double
        1.10942 
SectionMaxSize 1 1 double
        1.71502 
SectionShapeFactor 1 1 double
       0.646887 
