# vtk DataFile Version 4.2
vtk output
ASCII
DATASET POLYDATA
POINTS 900 double
53.373374926413 32.367068070759 40.943925977482 53.341733905846 32.378607219513 40.946079171946 53.315278599042  32.38786359067 40.947654561941 
53.288925221545  32.39693773587 40.949139705555 53.250013000304 32.409749277164 40.950995501002 53.231856286758 32.415631550528 40.951806474594 
53.181886843995 32.431173855281 40.953667109318 53.172280718535 32.434059990103  40.95396637711 53.113976677861 32.450996475916  40.95544919101 
 53.11279200679 32.451324248009 40.955469925124 53.105008087911 32.453448574045 40.955589324849 53.053908170547 32.467243640571 40.956286595286 
53.046383750212 32.469290209968 40.956398030673 52.996612099862 32.482191350092 40.956769706963 52.979268772055  32.48678649952 40.956956450346 
52.941411735942 32.496340905713  40.95709075045 52.911830002403  32.50410378617 40.957366275647 52.888739121437 32.509895607726 40.957427582357 
52.842553416867 32.521880380997 40.957780023487 52.837173647968  32.52321008336 40.957782998035 52.826410195891 32.525935396996 40.957826247776 
52.784609553309 32.536406185317 40.957929216745 52.762664616252 32.542260777881 40.958188617764 52.730244477858 32.550308226658 40.958226216908 
52.683483643323 32.563342069169 40.959099854438 52.668035096732 32.567413695596 40.959253849312 52.613407148931 32.583118022135 40.960548802999 
52.603185112414  32.58591243416 40.960708297687 52.546165759516 32.602813953111 40.962352690196 52.538547259324 32.604949922906 40.962502168458 
52.482941411047 32.621591171108 40.964196953841 52.477368150206 32.623169175007 40.964315177209 52.423697042741  32.63925153876 40.965962555072 
52.417585463063 32.640990267796 40.966096968301 52.369017956666  32.65546045192 40.967540081979 52.349410739483 32.661176501381 40.968050477776 
 52.31485051723   32.6715331326 40.969111714558 52.267771123771 32.685809650498 40.970654024773 52.256596251068  32.68928033856 40.971067196088 
52.234481517034 32.696224974642 40.971928642865 52.195906887158 32.707857119125 40.973154800349 52.176651300766 32.713761050169 40.973822826523 
52.134409409265 32.726938035886 40.975417678855 52.086426250088 32.742019975776 40.977294778243  52.07302502528 32.746338351658 40.977879993151 
52.042732186505 32.755984665795 40.979136696271 52.012925153618  32.76512901452 40.980173795885 51.999404467956 32.769215173872 40.980608747099 
51.953570960076 32.783355330331   40.9822489141 51.910594023839 32.796246882116 40.983575891098 51.895018625384 32.800967700066 40.984084805321 
51.869849021924 32.808502168501 40.984853042274 51.836733347482 32.817892972877 40.985563832294 51.814433571905 32.824232330183 40.986051477244 
51.778311995147 32.834472262429 40.986824905509 51.731040710896 32.848041730838 40.987933994354 51.719826093094 32.851062245046 40.988082992518 
51.710696872915 32.853585304006 40.988241168079 51.661140049892 32.867105801049 40.988998943706 51.604089500972  32.88319149114 40.990170361539 
51.602849388069 32.883518680892  40.99018292143 51.601755705074 32.883820775701  40.99020177423 51.544707641681 32.899227696319 40.990983698862 
51.490815448643 32.914638857127 40.992214315179 51.487480011866 32.915570728194 40.992277878302 51.483996126225 32.916603123734 40.992378185245 
51.430697612762 32.931498997917 40.993396801042 51.381061977325 32.946402528296 40.994937763976 51.375023001478 32.948147231415 40.995085874918 
51.368836244468  32.95005458158 40.995306503594 51.319728378224 32.964426422059 40.996616724878 51.273400802365 32.979001320786 40.998436718122 
51.265430767791 32.981392996568 40.998683349861 51.257288543697 32.983991041836 40.999024159427 51.211444231685 32.998135962448 41.000665534913 
51.168380565689   33.0123397701 41.002733929312 51.158276465204 33.015493236039 41.003116319898 51.147681286754 33.019002734019 41.003633753075 
 51.10537397418  33.03267077586 41.005501387855  51.06677429068 33.045810497169 41.007589864764 51.053338576316 33.050177310072 41.008198022004 
51.038513382684 33.055200649995 41.008986769627 51.001692795649 33.067380308707 41.010775417321 50.970510745157 33.078063156454 41.012501704341 
50.951256081369 33.084426600033 41.013433777546 50.925679920639 33.093081573775 41.014788076562  50.90160602583 33.101048049569 41.015959371618 
50.884957958188 33.106468109711 41.016718207851 50.850377424261 33.117551224934 41.018193821503 50.811651531994 33.129408284825 41.019527767688 
50.795352659998 33.134510310207 41.020153321808 50.750082936975 33.148473864747 41.021771781301 50.742134464819 33.150834389034 41.022003570518 
 50.73876254074 33.151856105136 41.022113575773 50.690884381889  33.16631983536  41.02365046002  50.66413404456 33.174399498739 41.024508300469 
50.647945316073 33.179351929249 41.025063511086 50.615806775662 33.188956616668 41.026035314558   50.5952047976  33.19548650323 41.026872465478 
50.565004066565 33.204756396524 41.027925999447  50.53141080327 33.215821980935 41.029531149614 50.510682603062 33.222390746673 41.030372781948 
50.456950920987 33.240858064088 41.033381369266 50.453165549781 33.242078707807 41.033547163109 50.430155062405 33.250510314273 41.035135972762 
50.391822596833 33.264345182065 41.037661486309 50.386676806331 33.266356606925  41.03808908732 50.327304518173 33.289242593441 41.042837883562 
50.320301757682 33.292185573273  41.04353792899 50.265417798617 33.315440553145  41.04913332591 50.257060501013 33.319283967086 41.050158988395 
50.207193221941 33.342816579297 41.056623225225 50.196745658112 33.348088222756 41.058173603046 50.151270663526  33.37171572156 41.065313428786 
50.137968443574 33.379101438228 41.067674340939 50.097657742415 33.402166326048 41.075221294285 50.080110407694 33.412870137664 41.078887640948 
50.046155490459 33.434106353279  41.08628305482 50.022666519184 33.449946321919 41.092059125377 49.997024416983 33.467630572351 41.098589977468 
49.965612457714 33.491341604104 41.107766365392 49.950769634495 33.503007734315 41.112367842309 49.909483733947 33.538651040606  41.12700119014 
49.907588099948 33.540384692654 41.127728843948  49.90252736333 33.545499369002 41.129950794427 49.867570532059 33.579557847065 41.144568874619 
49.854947450682  33.59360191835 41.150849981905 49.831017610944 33.621819706483 41.163672792023 49.804729743198 33.657835414591 41.180640824545 
49.798577922606 33.666783776055 41.184910329997 49.791654552973  33.67894514997 41.190916096983 49.771438106381 33.711585748657 41.206804198444 
49.751561278131 33.753250965685 41.227923525753 49.747088190113 33.761853501922 41.232231791296 49.725642827622 33.813326287183 41.258762201504 
49.723958599557  33.81755508564 41.260952812356 49.706196161987 33.872172700411 41.289810209517 49.705561219784 33.874544879152 41.291082863274 
49.693968116857  33.92879325703 41.320600568595  49.69368347038 33.930950530371 41.321799327144 49.687836945613 33.984106358479 41.351502132933 
49.687826329747 33.987176238396 41.353263787566 49.687267555797 34.038174601614 41.382475189592 49.687652650839 34.043324289869 41.385487317549 
49.689950326202 34.092138362939 41.413848110392 49.691005630477 34.100710694278 41.418920771275 49.694864980088 34.146665651613 41.445860287516 
49.697030946553 34.160855433222 41.454316329879 49.701854327175 34.203937456728 41.479742123391 49.705948633486 34.227262867238  41.49371780287 
49.710639595824 34.264426129265 41.515725488472 49.717847631943 34.303189812109 41.539008287492 49.721079416483 34.329423676011 41.554532443949 
49.727018956881 34.366303434773 41.576553857586 49.731373107528 34.389109232858 41.590267846038 49.736056527799 34.414664919911 41.605607766987 
49.740596379396 34.441477399913 41.621649213432 49.743964229741 34.461916662232 41.633864537048 49.748615797665 34.488020818724 41.649514962017 
49.752858460644 34.513163853625 41.664555554845 49.754671088424 34.524680142829 41.671426138845 49.761200766796 34.564740522839 41.695357760022 
49.761328043024 34.565603487157 41.695871392729 49.761861041176 34.568946872234  41.69786700223 49.768516026971 34.610872910401 41.722887865202 
49.770475755544 34.622082485237  41.72960309159 49.776367904807 34.659767949769 41.752080553175 49.781008885365 34.687581112463 41.768711032181 
49.784444728416 34.710383818287 41.782293391184 49.791539297098 34.755106594258 41.808982692694 49.792492366294 34.761594046828 41.812843467098 
49.795814552818 34.782947330349 41.825577292831 49.800578082192 34.813633431583 41.843875145274 49.802144896608  34.82337372454 41.849690943766 
49.808955692476 34.866568743485 41.875462665896 49.812970394133 34.891251237063  41.89020651637 49.817766550492 34.920364685749 41.907605744691 
 49.82410583222 34.957978044767 41.930105020013 49.827089234514 34.975040034206  41.94032627675 49.835772706456 35.023613781029 41.969452025167 
49.837011077345 35.030174877617 41.973395439432 49.845228275252 35.072836435556 41.999059645917 49.847669359926 35.085659150188  42.00676942975 
49.848022202739 35.087506637461 42.007880409952 49.859132764831 35.141337462741 42.040368713506  49.86059739155 35.148532905713 42.044708452211 
49.871670348816 35.199202259795 42.075375677912 49.872855566728  35.20489490271 42.078812788123 49.878419448482 35.228574253375 42.093199555258 
49.885229961595 35.257876214014 42.110991894043 49.887237101422 35.265367175378 42.115578075027 49.898819911217 35.310968744449 42.143406763314 
49.905522622229 35.334344363461  42.15778012146 49.913700090496 35.364651468625 42.176343049779 49.923863140436 35.398196125825 42.197046206232 
 49.92918232021 35.416992745641 42.208594022112 49.942108119752 35.457643773159 42.233769320536 49.945211677264 35.467861282376 42.240076506974 
49.960593392797 35.512919108816 42.268130086849 49.962018149976 35.517203949265  42.27079251145 49.978999838451 35.563550844782 42.299812700092 
49.979142053186 35.563941216146    42.300057016 49.997646611869 35.610153221456 42.329215073474 49.997692699999 35.610266854499  42.32928685461 
[...]
CELL_DATA 1
FIELD FieldData 6
ClosedSection 1 1 int
1 
SectionArea 1 1 double
        54.4123 
SectionLength 1 1 double
        27.3185 
SectionMinSize 1 1 double
        3.22297 
SectionMaxSize 1 1 double
        5.03227 
SectionShapeFactor 1 1 double
        0.64046 
