# vtk DataFile Version 4.2
vtk output
ASCII
DATASET POLYDATA
POINTS 885 double
37.222589437005  34.61168400347 20.811409837856 37.176720537739 34.638935964163 20.842149646197 37.168773398833 34.643544034729 20.847344167143 
37.130575942457 34.666407716551 20.873139010856 37.114778940481 34.675666269402 20.883578817724 37.084967142181 34.693698956059 20.903928782791 
37.059379109188 34.708911962231 20.921089133945 37.039974487778  34.72080254474 20.934512095711 37.001473207969 34.744020633354 20.960711781399 
 36.99470868001 34.748226029485 20.965460847515 36.974341789907 34.760721188003 20.979566721488 36.948747019274 34.776362673788 20.997222782517 
36.939368803569 34.781988552662 21.003570267734 36.901643653675 34.805411803043 21.030020822785 36.872447979718 34.823272323299 21.050182246684 
36.851181876441 34.836762863612  21.06542435792 36.801219062036 34.867883952698 21.100570429174 36.797745476149 34.870133076425 21.103112818779 
36.772929094889  34.88578870198 21.120798742108 36.741301001793 34.905736758973 21.143333628463  36.73756541972 34.908041632416 21.145935986397 
36.681885339887 34.943689335358 21.186220992827 36.679541925527 34.945146476871 21.187866520128 36.630171691932 34.976756264127  21.22358837913 
36.624775824593  34.98021348472 21.227495411278 36.624524239909 34.980378329353 21.227681802301 36.572914504686 35.013370456822 21.264964432485 
36.570231381706 35.015147397246  21.26697413194 36.523411507779 35.045554716078 21.301348754647 36.517621163512 35.049487885247 21.305799701862 
36.476259195826 35.077097235119 21.337031239192 36.466683838051 35.083759844128 21.344574985468 36.431440503188 35.107918321497 21.371919371877 
36.417403719685 35.117925092589 21.383255528192 36.388968185481 35.137900676119 21.405877638123 36.370101260753 35.151650844788 21.421461795729 
36.348643970838   35.1671151034 21.438984532418 36.324825926711  35.18494427253 21.459202945037 36.310062580264  35.19590514807   21.4716305678 
36.281339471784 35.218080592372 21.496793318329 36.272534903547 35.224844643018 21.504467818803 36.239018773079 35.251615881509 21.534865588116 
36.235829956246 35.254160224658 21.537754537756 36.215943865957 35.270670401025 21.556514836636 36.199803812498 35.284100358902 21.571775747491 
36.197292430875 35.286271743627 21.574244867413 36.164588655422 35.314636031458  21.60650016587 36.155843665895 35.322528612857 21.615481609426 
36.130238690667 35.345816248552 21.641985441889 36.114520263733 35.360689908537 21.658924284071 36.096684541686 35.377764100369 21.678372809435 
36.073851219828 35.400495727906 21.704281312554 36.064089181211 35.410382740844 21.715553027009  36.03426693037 35.441786002224 21.751374931646 
36.032415276864 35.443781277214 21.753651703511 36.025338161437 35.451679706043 21.762668840538 36.002179247272 35.477663322027 21.792334822777 
35.996232534128 35.484567138201 21.800220622227 35.972875797881 35.512431431802 21.832059450302 35.959348880232 35.528970993717 21.850964044481 
35.945082939019 35.546918403372 21.871484950273 35.926562062199 35.570628482668 21.898600488584  35.91937361319 35.580132914522 21.909474124365 
35.900746214035 35.605389314668 21.938377182037 35.896319152632 35.611597020779 21.945483815216 35.881094140665 35.633482654751 21.970545309655 
 35.86129225157 35.663089025381 22.004461682998 35.857371919747 35.669104364252 22.011354501764 35.846438861954 35.686656715174 22.031476058933 
35.832968903292 35.708510845139 22.056531536622 35.829202200833 35.714937793626 22.063903325036 35.808174243006 35.751531980285 22.105884573547 
35.801102644771  35.76470604545 22.121006651018  35.78563541602 35.793827073616 22.154436575916 35.775769992691 35.813595669246  22.17714123701 
35.765222676636 35.834823281968 22.201522412567  35.75230037396 35.862245166524 22.233030265856 35.746203978442 35.875130443673  22.24783507803 
35.729664374905 35.911578349255 22.289724897724 35.728216450778 35.914745343121 22.293364557787 35.723055536163 35.926443273473 22.306811624235 
35.711150619181 35.953921512199 22.338402334412 35.708042942084 35.961345390055  22.34693917639 35.694846636217 35.992702634582 22.382996185317 
35.687705061731 36.010211816191 22.403133545964 35.679239995905 36.030865919229 22.426887183074 35.668766813273 36.057035300737 22.456988145296 
35.664316317479 36.068106173957 22.469721916912 35.651227540785  36.10116003829 22.507744080113  35.64990591001 36.104482052327 22.511565316327 
35.642683373668 36.122719766358 22.532544313729 35.636270893778 36.139131910211 22.551424852707 35.635211331781 36.141816809367 22.554513379487 
35.622819240057 36.173313948259 22.590746218925 35.620569683951 36.179031434182 22.597323346411  35.60834413082 36.210490779087 22.633515339899 
35.607657720603 36.212294705717 22.635590897379 35.606340280402 36.215706720645  22.63951635323 35.595518933226 36.244675052536 22.672850157883 
35.584989341943 36.272026899315 22.704318463328 35.581974167964 36.280109106676 22.713618713371 35.579676625106 36.286203204907 22.720630815674 
35.568411918798 36.317284754449 22.756402297631 35.558014556259 36.346201923509 22.789684251261  35.55548655571 36.353496691841 22.798081744357 
35.551998936667 36.363583010962 22.809692912427 35.543244688937 36.389554497073 22.839594687196 35.536283081339 36.409945984254 22.863070506686 
35.530886968483 36.426392611502 22.882008576528  35.52423570202 36.446784442605 22.905490176433 35.518407607718 36.465020071312 22.926490945407 
35.512959193146 36.482299292255  22.94639156638 35.505952118146 36.505539940708 22.973163581047 35.497544710187 36.534303684607 23.006302507615 
 35.49299343948 36.550017603394 23.024407356731 35.490411051912 36.558846808773 23.034579521741 35.480128893099 36.598605636163 23.080409190519 
35.478275302168 36.605851237047 23.088761484878 35.469195767682 36.645770340919 23.134797479756 35.468939334233 36.646912788922 23.136115046767 
35.468892943815 36.647145961297 23.136384063888 35.461551305657 36.685454439186 23.180586420904 35.459495427083 36.697460666694 23.194444094253 
35.455296442179 36.723583058559  23.22459949839 35.451573374736 36.749236128489 23.254220068131 35.449971037087 36.761545619891 23.268436537504 
35.446524384234 36.791535640026 23.303080520075 35.445711315912 36.799277273357 23.312024858166 35.445441864171 36.802508772917 23.315759601699 
35.442924727233 36.836636964697 23.355208302268 35.441817412424 36.857778040404   23.3796530629 35.441161982955 36.873599030528 23.397949380457 
35.440719714902 36.900531077248 23.429106853566 35.440700060164 36.910138403939 23.440223889663 35.440849057567 36.916250767864 23.447299560449 
 35.44194712055 36.946355392215 23.482154982163 35.443955007182 36.978334395561 23.519195171669 35.444265097221 36.982406067915 23.523912195139 
35.444816166074 36.987668981841  23.53001187534 35.448561129214 37.018214329847 23.565423199116 35.452332253374 37.042704539562 23.593828110168 
35.454134445651 37.053757148839 23.606649191364 35.456681983453 37.067254541694 23.622312246744 35.461272956324 37.089115727698 23.647689131299 
35.465385128504 37.106993091859  23.66844772492 35.469449441279  37.12436077732 23.688615700041 35.474987357204 37.146530180922 23.714365670309 
 35.47848467721 37.159475953112 23.729406875625 35.481448998943 37.169915937561 23.741539197013  35.48843026863 37.194506462994  23.77011586662 
35.497569473184 37.224647646731 23.805153056447 35.499053492276 37.229233856645  23.81048585109 35.500432224195 37.233160989393  23.81505415077 
35.511031965244 37.263531102048 23.850381582841 35.523446607053  37.29603434316 23.888208898926 35.523923294709 37.297209788254 23.889577364377 
35.524447649104 37.298379963124 23.890940557962 35.538441476043 37.329893370079 23.927649849549  35.55218273239 37.358030403869 23.960447699455 
35.554456318326 37.362414446678 23.965560244925   35.5578595481 37.368412330685 23.972559882332 35.572830764636 37.394891427022 24.003460537187 
35.582874512624 37.411273836378 24.022592078515 35.592907830585 37.426997883809 24.040961597704 35.607365737566 37.448121080488 24.065655626297 
35.614260390408 37.458206250149 24.077445530328 35.620228250941  37.46639781722 24.087028127167 35.636864194941 37.488679811624 24.113100864803 
35.658668653105 37.516181495124 24.145303347039 35.660352229714 37.518268911386 24.147748056318 35.663504314149 37.521973283139 24.152089338447 
  35.6854010462 37.547705802533 24.182246185123 35.697847656599  37.56169409537 24.198648984316 35.712031058146 37.577362756479 24.217026389168 
35.740199885647 37.606978751849  24.25178588551 35.740357049464 37.607143007569 24.251978684232 35.740665754336 37.607448814621  24.25233791116 
35.770335630578 37.636859177603  24.28688548805 35.786847053324 37.652437420443 24.305198639261 35.802011474505 37.666726777363 24.321996959524 
35.835268109721 37.696427178139 24.356942368817  35.83557884704 37.696705134114 24.357269402371 35.835725770486 37.696829870006 24.357416292053 
35.870940850099 37.726746429181 24.392645801363 35.886613457292 37.739271765823 24.407411651804 35.908494337835 37.756885460808 24.428173307107 
35.940463233072 37.780703722322 24.456289706377  35.94941009746 37.787458245012  24.46426105527 35.979051524816 37.808023311061 24.488572565043 
35.992347212103 37.817327893714 24.499570208837 35.997604070845 37.820744397359 24.503614881014 36.034912980079  37.84539241847 24.532784074092 
36.075269842362 37.869880001672 24.561820474633 36.078288772375 37.871699043689 24.563977787272 36.086165035031 37.876237721747 24.569366443737 
36.124037154476 37.898415416275 24.595686799936 36.136234159062 37.905438187087 24.604024928542 36.169622902642 37.924205706419 24.626321350686 
36.195621650833 37.938812370464 24.643674757798 36.214416538202 37.949009966014 24.655801151521 36.253194920609  37.97054927702 24.681398502898 
36.259567017542 37.973968825208 24.685466040408 36.285566749918 37.988298588312 24.702499041204 36.305206841059 37.999306765844 24.715578080597 
[...]
CELL_DATA 1
FIELD FieldData 6
ClosedSection 1 1 int
1 
SectionArea 1 1 double
        53.0053 
SectionLength 1 1 double
        26.2294 
SectionMinSize 1 1 double
        3.74036 
SectionMaxSize 1 1 double
          4.549 
SectionShapeFactor 1 1 double
       0.822239 
