# vtk DataFile Version 4.2
vtk output
ASCII
DATASET POLYDATA
POINTS 591 double
 26.04532164521 13.796299627388 21.056109806956  26.04485528935 13.795994225828 21.055343363494 26.013254077764 13.774113057787  21.00318225569 
26.008058503899 13.769421147659  20.99439855859 25.981030097486 13.749605672327 20.949576313254 25.969316425861 13.738586652788 20.929689309609 
25.949826913321 13.723725009911 20.897260236574 25.928813595729 13.703251807115 20.861450571385 25.919611432606 13.695437586766 20.845987468497 
25.903766553557 13.678857615089 20.818768588737 25.891900970554  13.66572445295 20.798249284842 25.884106222509 13.655812522935 20.784525770068 
25.866561765123 13.634410989756 20.753809323404 25.850638336285 13.612680151333 20.725492831611 25.843953673359 13.603408687931 20.713577284956 
25.835967936054 13.591674452627  20.69921753457  25.82354731621 13.573673098027 20.676930476249 25.816556815698 13.562960154608 20.664276557197 
25.805738052885 13.546813897926 20.644775206934 25.795642444323 13.531263143759 20.626485499589 25.783845605303 13.513297298514 20.605152768691 
25.775243490192 13.499732002056 20.589508913482 25.756155892517  13.46990425392 20.554847924321 25.754250381835 13.466834070988  20.55137015994 
25.749967502375 13.460017306252  20.54356936698 25.732677948584 13.433557120312 20.512279370041 25.724388120317 13.421324847859 20.497363085576 
25.710934859208 13.400790878761 20.473026334343 25.690293787324 13.370131751806 20.435847566931 25.689422939934 13.368817359387  20.43427502747 
25.688094487038 13.366886135834 20.431890188375 25.667636032964 13.338842365287 20.395485561147 25.653223141984 13.319964718838 20.370005619528 
25.646197767653 13.310607280565 20.357556170453 25.635758375604 13.297573958373 20.339222350476 25.625266929136 13.285155175108 20.320926172188 
25.617564813925 13.276574740978 20.307596262298 25.604336340147 13.261589389476 20.284654815555 25.588702526198 13.244941322714 20.257743630965 
25.583014664508 13.239258278742 20.248023858351 25.577227400387 13.233895648891 20.238213939063 25.560664535247 13.218558671781 20.210140447073 
25.543958475261 13.203928340949 20.181983639323 25.536664589128 13.198000972237 20.169777756848 25.529305909958 13.192451364671 20.157545194441 
25.511081338776 13.178690518057 20.127246760001 25.490183503747 13.164080119658  20.09272602729 25.483499047997 13.159698210761 20.081739452501 
 25.47869743281 13.156941699936 20.073921800717 25.453801070034 13.142595001765 20.033377002356 25.436309217886 13.134314900515 20.005232578909 
25.413586696503 13.123358083901 19.968633884479 25.396346864592 13.116576410789 19.941156895654 25.366086644134 13.104855615438 19.892962609196 
25.353134000097 13.100920454476 19.872538901098 25.330891223479 13.094887849329 19.837604224677 25.316283846678  13.09096388114  19.81466894369 
25.305339318743 13.088549321379   19.7975845605 25.282992649781 13.084336174416 19.762837625345 25.257028760826    13.080245755  19.72261909332 
25.251193817833 13.079490508265 19.713611810481  25.23315265859 13.077606664907 19.685847756971 25.219642437263 13.076283067363 19.665073040908 
25.215760290562 13.075952250576 19.659112854614 25.187635959572 13.074230679235 19.616062310315 25.173880081221 13.073564052016 19.595039193767 
25.155771586248 13.073107458388 19.567443923678 25.130387769865 13.072761140754 19.528817682892 25.123708306491 13.072813769607   19.5186809293 
25.108177426252 13.073093018062 19.495141060736 25.091580872406  13.07355361683 19.470016774432 25.084747560447 13.073789773429 19.459681166825 
25.059266552157 13.075185376119 19.421238119405 25.040348302454 13.076403656973 19.392730857215 25.026778732557  13.07749679797  19.37232498822 
24.998389115626 13.080152918275 19.329702889688 24.994641622023 13.080548588642 19.324085233775  24.97986974073 13.082321190221 19.301981985518 
 24.96273285553 13.084504516465 19.276364075777 24.958455620877 13.085106678443 19.269980910385 24.931252565603  13.08928970387 19.229451313585 
24.920150650193 13.091242207362 19.212957265723 24.899696746665 13.095018194914 19.182602974124 24.882328978725 13.098665298237 19.156912341636 
24.867752992354 13.101872547967 19.135379154711 24.843370108693 13.107824519226 19.099469640761 24.835329459742 13.109908591772 19.087650940445 
24.802957289025 13.119150411682 19.040229758977 24.802375155963 13.119326898471  19.03937896226 24.799867882629 13.120162945781 19.035728959934 
24.768983516788 13.130685645516 18.990811170927 24.761820931682 13.133340611763 18.980434762276 24.735001387056 13.143850379633 18.941689372712 
24.720793708367 13.149950137293 18.921265045285 24.700415888686 13.159210239657 18.892067912436 24.680468881609 13.169162827425 18.863656746987 
24.665220580394 13.177229608422 18.842025203886 24.641094941586 13.191295333911 18.808047488572 24.629717540638 13.198331097411 18.792100398601 
24.602701941069 13.216800276944 18.754568887772  24.59397603998 13.223131261558 18.742515825517 24.565166407465 13.245968727977 18.703088660062 
24.558163139177 13.251793888292 18.693556373648 24.528293517022 13.278815404076 18.653313644531 24.522486753776 13.284274751297 18.645529487013 
24.491800641093 13.315158615648 18.604779993288 24.486713157095 13.320435495692  18.59805383494 24.455699944459 13.354568932111 18.557424625459 
24.451121849536 13.359749310447     18.55145395 24.419886489694 13.397254727037 18.511127706685 24.416127445195 13.401895782894 18.506298816072 
24.384469965742 13.443078761101 18.466029799633 24.382006409329 13.446356070802 18.462909868535 24.349752923195  13.49099403418 18.422391654522 
24.349158906053  13.49183027917 18.421648110464 24.341581240528 13.502794408038 18.412219286779 24.317638015341 13.537453404879 18.382429888239 
24.315796685869 13.540189550876  18.38015239843 24.287546702431 13.582470151949 18.345268165085 24.283008878546 13.589407590419 18.339692377919 
24.258811873996  13.62665208496 18.310008519193 24.251504524305 13.638169040065 18.301095327822 24.231546155014  13.66987242386 18.276797959848 
24.221712485523 13.685967379518 18.264916529711 24.205446786544 13.712772902201 18.245298449373 24.193914908545 13.732388258009 18.231505894812 
24.180228792675 13.755766752573 18.215155565787 24.168369553766  13.77674621468 18.201124798686 24.155995861946 13.799001841545 18.186554905796 
24.145260753093 13.818975209325 18.174040716478  24.13128156937 13.845561469797 18.157854429632 24.124870357033  13.85802258535 18.150481878666 
24.114965104448 13.878069315217 18.139242254494 24.102936956154 13.902383474113 18.125588245833 24.090210069416 13.929375924111 18.111381465166 
24.080268630881 13.950937366422 18.100374555442 24.072470367275 13.968713540704 18.091904411566 24.057296017839 14.002987443065 18.075362641467 
24.042007973716 14.040078813192 18.059183270637 24.035582475156 14.056077489966 18.052460894988 24.028779912456 14.074454255037 18.045617385093 
24.015773199133 14.109386411667 18.032493483442 24.003145572473  14.14665375256 18.020388964937 23.998255652304 14.161361660342 18.015754129452 
23.994881761249 14.172545000865 18.012752878871 23.982679037499 14.212658046524 18.001834304303 23.969770395806 14.260202571466 17.991254808912 
23.969474000824 14.261316807445 17.991016179549 23.969180906791 14.262551359883 17.990805415958 23.957973678518  14.30977371355 17.982749342744 
23.949887110314 14.347148278553 17.977563494824 23.947282997885 14.359651781612 17.975982346401 23.944047940322 14.377122279819 17.974386096648 
23.937847153556 14.410368248742 17.971280801857 23.933920549705  14.43424580661 17.969850898532 23.929642248735  14.46215821623 17.968653059595 
23.924085936312 14.504456959916 17.968246147498 23.922700065615 14.514889850982 17.968122361202 23.921948247212 14.521707849741 17.968275196797 
23.917321022546  14.56843495086 17.970120722117 23.914228887531 14.607103190805 17.972767603479 23.913151364463 14.622820489823  17.97411587735 
23.911505650385 14.654536716718 17.977639638475 23.910281742389 14.678073289994 17.980250628784 23.909876634848 14.688668292808 17.981647505691 
23.908696691023 14.734561681599 17.988571438897 23.908216834178 14.766300296434 17.993870501694 23.908172235129  14.79289579375 17.998853947531 
 23.90853469112 14.843855745857 18.009083210701 23.908776966876 14.855924410006  18.01174341298 23.910504435055 14.923247953703 18.027154144942 
23.910510781599 14.923486041605 18.027209005214 23.913508579134 14.989806830185 18.044359040005 23.914941739215 15.020064931052 18.052282970867 
23.917005330127 15.055597989964 18.062166442559 23.919921334157 15.101322940957 18.075280524843 23.921337123062 15.123424790265 18.081628976947 
 23.92219596634 15.136151006686 18.085350691529 23.926693604737 15.188566699007 18.102138179678 23.928132886246 15.204273879957 18.107307800802 
23.932988646195 15.248638375776 18.123110172634 23.934441680311 15.260623196422 18.127593709537 23.941143848112 15.308713748805 18.146908630791 
23.941634758594 15.312040602851 18.148286229712  23.94407969991  15.32693533838 18.154829239985 23.949970444904 15.361994389612 18.170436501194 
 23.95152830998 15.370311783246 18.174382743982 23.959342959094 15.410622811583 18.193910092032 23.964333907918 15.434064536249 18.205944035099 
23.969727168304 15.458648206806 18.218806014298 23.979725586048 15.500512314915 18.241945688936 23.981154495607 15.506315033371 18.245218431798 
23.984643857232 15.519322963327 18.252989662442  23.99410622983 15.554125258051 18.273973805602  23.99926510832 15.571829534602 18.285173155217 
24.008296259271 15.602158599907 18.304652645215 24.024722943854 15.654358102487 18.339520445077 24.025342003457 15.656311927694 18.340831939985 
24.025782473378  15.65766123849 18.341757326487 24.045188514623 15.715089902053 18.382144214027 24.046362912005 15.718532130136 18.384582008098 
24.064121023015 15.769615055197 18.421260305215 24.065469792685 15.773528908416 18.424052561839 24.082282468236 15.821997610978 18.458798140534 
[...]
CELL_DATA 1
FIELD FieldData 6
ClosedSection 1 1 int
1 
SectionArea 1 1 double
        21.7113 
SectionLength 1 1 double
        17.6522 
SectionMinSize 1 1 double
        1.97935 
SectionMaxSize 1 1 double
        3.39238 
SectionShapeFactor 1 1 double
       0.583469 
