# vtk DataFile Version 4.2
vtk output
ASCII
DATASET POLYDATA
POINTS 732 double
27.326599046976 17.681646846364 21.570776901466 27.330637249399 17.683027271233  21.57756200418 27.335687981646 17.684700797863 21.585565406178 
27.362759503188 17.693823425484 21.629853558941 27.385450332821 17.701137400973 21.663946900404 27.394108709443 17.704089157112 21.678421755043 
27.405385617245 17.707751114309 21.695611902799  27.42478198655 17.714147940938 21.726073877598 27.441654413324  17.71948250693 21.750478069144 
 27.45547340213 17.724058696251 21.772351614382 27.473246980881 17.729690463757 21.798171119141 27.485751542382 17.733704348096 21.816807004787 
27.497977239257 17.737526940924 21.834100203624 27.516070977847 17.743406636474 21.861719093764 27.532523413879 17.748684203076 21.886206173462 
27.547529595457 17.753479698497  21.90837542373 27.565929925771 17.759202673925 21.934127234703  27.57876668997 17.763368303759 21.953669120286 
 27.59286436136 17.767732035568 21.973207887963 27.609925105392  17.77308506861 21.997510326068 27.620119565368  17.77620060791 22.011274966583 
27.638479790296 17.781992007161 22.037707540465 27.654197558836 17.786868735692 22.059596618296 27.669807466748 17.791789218816 22.082038881359 
27.689521679502 17.797720294532 22.107802703976  27.70386759967 17.802134923177 22.127449202291 27.728322974126 17.809294484492 22.157606370636 
 27.74006848113 17.812810796363 22.172798067492 27.769891558385 17.821327164752 22.207619254607 27.776905659315 17.823376625466 22.216232362811 
27.813550266128 17.833587981605 22.256713852723 27.814605356549 17.833888739144 22.257940873822 27.820981289485  17.83562608722 22.264625834577 
27.852927588377 17.844399698018 22.298746409959 27.859050891137 17.846009766853 22.304634158486 27.892362788739  17.85494682896 22.338285901038 
27.906660968812 17.858638608212 22.351416447548 27.932962250539 17.865573120842 22.376877397378 27.956422151909 17.871554746111 22.397731912377 
27.974706255766 17.876314346598 22.414875019913 28.008821607378 17.884944754892 22.444581652419 28.017692353808 17.887237901299 22.452752820954 
28.054525001797  17.89652654586 22.484559814221 28.061877433142 17.898400416148 22.491088454726 28.063749580394 17.898866793659 22.492652778241 
28.107401317673 17.909943917103 22.530975177679 28.123317622307 17.913886800301 22.544073296813 28.154779878331   17.9218265779 22.571292452458 
28.192411993034 17.931035641668 22.601228446169 28.207107922599 17.934734311762 22.613851553514  28.22074783616 17.938023570154 22.624259242487 
28.262973293673 17.948260798159 22.656975777641 28.286910515971 17.953987714644 22.674825885989 28.317447245568 17.961273236713 22.697412287877 
28.347850849575 17.968499909104 22.719653478383 28.371709957659 17.974128641366 22.736721215906 28.405562797444 17.982103820939 22.760835742611 
28.425529880083 17.986761123704 22.774634334423 28.462217680391 17.995329805388 22.800090880899 28.479191133908 17.999242834809  22.81140155174 
28.517815859428  18.00816596701 22.837310020864 28.532473999451 18.011513149426  22.84678562278 28.572688796683 18.020713814821 22.872942623071 
28.584944773189 18.023486847205 22.880632031116 28.626951614899 18.033008938074 22.907147829689 28.636400242966 18.035129323004 22.912916882371 
28.680647811574 18.045059071759 22.939933740963 28.686872297995 18.046441331662  22.94360133645 28.732941497669 18.056669930805 22.970728943367 
28.735286465089 18.057184974999 22.972058741167 28.767340392911 18.064218097033 22.990171014887 28.782487972552 18.067547133563 22.998779674067 
28.783566286926  18.06778329198 22.999384972188 28.792372589438 18.069698583913 23.004206673038 28.832007455293 18.078336400103 23.026068094599 
28.836933302565 18.079393305004  23.02863375983 28.881194538787 18.088925099501  23.05200608356 28.895215030226 18.091882065409 23.058841349994 
28.942024755531  18.10166823903 23.080877323758 28.950222528036  18.10337076017 23.084633287442 28.970147136031 18.107422691875 23.092978481996 
29.007449006104 18.115081110753 23.109263179036 29.031067921239 18.119855396445 23.118892151458 29.062896580324 18.126277902467  23.13176530271 
29.104715150625 18.134536350168   23.1470405553 29.111242855927 18.135836696897 23.149527318826 29.117093821274 18.136976286429  23.15151991858 
29.156220551546 18.144624218736 23.165093003132 29.183220820899 18.149841431998 23.173909119551  29.20175179895 18.153439539884 23.180118346504 
29.249202751093 18.162486098783  23.19449796192 29.252587381184 18.163134931991 23.195555991636 29.262583854643 18.165016806322 23.198367083187 
29.306079722153 18.173238196722 23.210900236098 29.321537923459 18.176106078328 23.214862960722 29.359383474585 18.183162154883 23.224881545476 
29.405322944553 18.191551978544 23.235445836593 29.411618183384  18.19271158958  23.23698390752 29.420113175298 18.194246550932 23.238787490188 
29.463956250156 18.202203990584 23.248418580748 29.497392340416 18.208178711405 23.254908495672 29.516222015364 18.211567172995 23.258779860052 
29.544518978178 18.216572139744 23.263803716462 29.569252563379 18.220976085283  23.26846130939   29.5853127131 18.223789269235 23.271062852596 
29.622974451653  18.23043123417 23.277572830552 29.672527312014 18.239023147681 23.284797846074 29.677316303958  18.23985807272  23.28553770387 
29.685019705543 18.241178301697 23.286520113835 29.731789781599 18.249254073104 23.293032978185 29.760882165617 18.254189668142 23.296284628531 
29.786317911371 18.258528357983 23.299341204905 29.825111541994 18.265029635494 23.302947006946 29.840618050616 18.267650749069 23.304592683937 
29.850641149484 18.269313504889 23.305369668505 29.894645124061 18.276651263952  23.30912546288   29.9423156615 18.284446977872 23.311796413266 
29.948225601389 18.285417943692 23.312168484881 29.955924248158 18.286657788792 23.312425499423 30.001512435619 18.294072039977 23.314606953164 
30.036591191256 18.299657260493 23.315194034131 30.054340039191 18.302497908948 23.315624858558 30.075386261738 18.305794415484 23.315481002068 
30.106885376532 18.310782109103 23.315756963753 30.133845417758 18.314956355485 23.315130428568 30.159161811212 18.318896255687 23.314725555921 
30.186849322835 18.323103779158  23.31335924957 30.211278641294 18.326860511738 23.312557610962 30.234307592945 18.330313862333 23.311000028154 
30.263336261321 18.334687555931  23.30922469413 30.292673259834 18.338991771355 23.306374470386 30.315448378732 18.342376976282  23.30456004348 
30.339248104484 18.345817112408 23.301777121217 30.367728389987 18.349952026374   23.2986129111 30.393755459486 18.353620349577 23.294715446014 
30.420314846179 18.357414488177 23.291200904175 30.452335020688 18.361850686986 23.285706350063 30.473371869744 18.364776031529 23.282195039194 
 30.48988716362 18.367000585384 23.278782299056 30.526914260277 18.372063033108 23.271814363262 30.581030487549 18.379232065956 23.259536473978 
 30.58122188546 18.379257803664 23.259496532152 30.581530270161 18.379297977846 23.259420380871  30.63586132423 18.386394682844 23.246175689257 
30.667204027712 18.390356068116 23.237327299299 30.690901724678 18.393397614879 23.231059917579 30.740731926532 18.399590557635 23.216035261681 
30.746137674932 18.400264007188 23.214420076694 30.748586537531 18.400559416779 23.213600293723 30.801488114251 18.407029574689 23.196697699013 
  30.8253386333 18.409851982439 23.188215109995 30.857102248499 18.413654633581 23.177317408033 30.898357021079 18.418425727422 23.161634817533 
30.913009165299 18.420139275982 23.156238343287 30.969022566323 18.426450414691  23.13342618983 30.969246268622 18.426475900915 23.133337646189 
30.970225295502 18.426583090169 23.132910509027 31.025656348703  18.43266663591  23.10886006973 31.037440399745 18.433909419749 23.103287081597 
31.082086663803 18.438661072026 23.082565410094 31.104319322284 18.440935961718 23.071414851839 31.138617662858  18.44447026731 23.054439064021 
31.169097329217 18.447488962092 23.038241000078 31.195114171274 18.450079989046 23.024545170748 31.231338417212 18.453541498262  23.00414533745 
 31.25153542455 18.455478202629 22.992832547131 31.290996723346 18.459110708972 22.969349728089 31.307861342509 18.460665602757 22.959336307764 
31.348135996714   18.4642320738 22.934085963626 31.364116119828 18.465647801436 22.924072886952 31.403290021156 18.468988921102 22.898347852858 
31.420554192215 18.470457308044 22.886973655615 31.456808398775 18.473438281196 22.862153697397  31.47708821787  18.47509810761 22.848200124981 
31.509114501415 18.477633187766 22.825379638619 31.533730559408 18.479571538987 22.807746767707 31.560522348005 18.481615035831 22.787952568637 
31.589958607355 18.483847483755 22.766088441699 31.611265750003 18.485414447065 22.749816229967 31.645292578572 18.487901651678 22.723691698241 
31.661632913822 18.489060919571 22.710826150862 31.699188019803 18.491701775769  22.68104313895 31.711543574592 18.492542927667 22.670992411032 
31.751164304133 18.495218555901 22.638564889956 31.760979113192 18.495858345407 22.630322337457 31.801047458455 18.498450189927 22.596489940735 
31.809521333137 18.498975816585 22.589129828261 31.848558387806 18.501385746264 22.555118822319 31.856779772893 18.501868595957 22.547731022185 
31.893698074845 18.504039490082 22.514580066542 31.901961433568 18.504502603231 22.506952314682 31.936134371814 18.506418201899 22.475411598549 
31.944439035061 18.506858573549 22.467517482243 31.977653796804  18.50861877926 22.435934927896  31.98418023397 18.508942663265 22.429528969713 
32.021878773646  18.51081260679 22.392518136752 32.022517234885 18.510842082576  22.39187134189 32.025287534078 18.510968450355 22.389050960858 
32.060744665836  18.51260339392 22.353112774751  32.06923161064 18.512990866553 22.344475488525 32.100056143194 18.514277258121 22.312003584977 
32.118876521085 18.515051165439 22.292072461292 32.139727415964 18.515825755221 22.269236636829 32.169036931251  18.51690197998 22.237022241553 
[...]
CELL_DATA 1
FIELD FieldData 6
ClosedSection 1 1 int
1 
SectionArea 1 1 double
        36.9246 
SectionLength 1 1 double
        21.6541 
SectionMinSize 1 1 double
        3.20544 
SectionMaxSize 1 1 double
        3.56028 
SectionShapeFactor 1 1 double
       0.900333 
