# vtk DataFile Version 4.2
vtk output
ASCII
DATASET POLYDATA
POINTS 642 double
22.580647061187 21.052414188967  19.32815975122 22.585479377904 21.063212670057   19.3644138929  22.59233513703  21.07742244837  19.41027452759 
22.594827559153 21.082509476972 19.426550845037 22.597482407399  21.08751998283 19.441839445413 22.605243239848  21.10303497367 19.490889350405 
22.611451902382 21.114526727566 19.525509506964 22.617539462262 21.125308679049 19.557016319696 22.626990627775 21.141779204452  19.60458210286 
22.629798556152 21.146613439422 19.618416959492 22.640858317959  21.16535278984 19.671395322881 22.642222895409 21.167680120029 19.678008358099 
22.642578710976 21.168279487108 19.679695127112 22.654344763175 21.188137099155 19.735662886167 22.657966885092 21.194194879651 19.752614728044 
22.666567741067 21.208716033477 19.793553939147 22.673012704476 21.219496965044 19.823727559059 22.678810843657 21.229377761133 19.851785849802 
22.687602767851 21.244238833002 19.893721527807  22.69085962544 21.249926946765 19.910174852283 22.701569749262 21.268384012606 19.963035308135 
22.702597779533   21.2702438945 19.968552233425 22.708090997865 21.279982830042 19.997031408952 22.713801343367 21.290109145061 20.026648484911 
22.714936504559 21.292059575887 20.032221896846 22.724506617107 21.309502805932 20.084228854929 22.727947077232 21.315492770661 20.101515283739 
22.734979410523 21.328595786638 20.141163622808 22.740891875037 21.338966932899 20.171258747632 22.745574069675 21.347638587083 20.197393636061 
22.754401085079 21.362855524843 20.240985435909 22.756640540513 21.366870958987 20.252822134521 22.765666693057 21.381946132731 20.294962279098 
22.768158117145 21.386099832767 20.306556811645 22.768904440109 21.387262021929 20.309617975514 22.780402182473 21.405580606271 20.358856522094 
22.784881097998  21.41236843598 20.376289603163 22.792995715345 21.424768353799 20.408386600968  22.80146751517 21.437154916352 20.439089301463 
 22.80587791644 21.443603552362  20.45507415478 22.818126418416 21.460772127395 20.495749686741 22.819908474656 21.463256447888 20.501599538476 
22.835302689836 21.483967315414 20.548368949335 22.835477367945 21.484199736836 20.548886665864 22.838250971409 21.487779557506 20.556551662931 
22.852984953536 21.506794334127 20.597259717124 22.853998663979 21.508069767492 20.599895806435 22.872569983701 21.531072643977 20.646365779453 
22.874411651289 21.533304418375 20.650726290692 22.894218081877 21.556918081642 20.695672996186 22.896603444136 21.559707890477  20.70081464011 
22.918018923002 21.584335039407 20.744870195148 22.920580215565   21.5872412319 20.749942370116 22.943890765975 21.613214632034 20.793714492007 
22.946249848967 21.615818866448 20.798022166634 22.971865196222 21.643545739588 20.842032694492 22.973568207656 21.645377302382 20.844899295725 
23.001843499413 21.675242947115 20.889762814389 23.002373912378 21.675801056427 20.890593676336 23.012011661765 21.685774898685 20.904851503315 
23.032414059083 21.706895752197 20.935069264603 23.033641121529 21.708147845556 20.936795389654 23.063538694777 21.738521315606 20.978180070009 
23.067164789122 21.742154445618 20.982944927103 23.095791718876 21.770726106168  21.02000574139 23.102298434867 21.777140589519 21.028029464136 
23.129137071495  21.80353682797 21.060814333148 23.138775927429 21.812913152758 21.072068392757 23.163716268847 21.837157369233 21.101103545506 
23.177110038046 21.849990109226 21.115756641927  23.20016450084 21.872109187885 21.141130903508 23.218215551546 21.889136743094 21.159536848203 
  23.2389483356 21.908749539774 21.180956185572 23.262897076927 21.931085713962 21.204097267772 23.280070802006  21.94721302004 21.221243830863 
23.311398741046 21.976306647488 21.250888365221 23.324188739591 21.988306663441 21.263604568789 23.362345187312 22.023584560469 21.298921360718 
23.370972959373 22.031625250262 21.307227346907 23.411360588937 22.068536807797 21.342454607761 23.422830163186 22.079051549234 21.352620993367 
23.455899914381 22.108991244372 21.380040569892 23.476586569276 22.127732990323 21.397258471734 23.498872902259  22.14768651074 21.414615490631 
 23.52655747723 22.172379429695 21.435705944933 23.542400952524 22.186407027283 21.447254620762 23.574806800993 22.215025279603 21.470507284023 
23.589311942144  22.22777272364  21.48060244063 23.624700716732 22.258638295363 21.504052861548 23.630413847018 22.263635650207 21.507911197832 
23.633545861789 22.266355201599  21.50992565601 23.668731265764 22.296912679032 21.532585085901 23.692306169937 22.317268886365 21.547175482157 
23.704136461404 22.327492189875 21.554538405935 23.722454727076 22.343252160107 21.565587882276 23.737270577127 22.356022572471 21.574643783946 
23.746339342413 22.363815777446 21.580068664676 23.769504553333 22.383761676904 21.594121610036 23.792893780591 22.403869005445  21.60815254089 
23.797247260213 22.407622955125 21.610821051973  23.82446994661 22.431113286639 21.627590607825 23.834879318155 22.440128782681 21.634170083756 
23.864279670564 22.465564361118 21.652613192816 23.881056307227 22.480142513293  21.66345823512 23.914141255852 22.508755975377  21.68416338813 
23.920381783864 22.514190793736 21.688258124961 23.936724558382 22.528385597809 21.698790868722 23.952459084145  22.54207141334 21.709028575818 
23.965031020937 22.553024777327 21.717300673832 23.982652273391 22.568438267494 21.729200777207 23.991533207216 22.576240232033 21.735367593962 
24.017405624206 22.598898104877 21.752975497343 24.044216967599 22.622416019667 21.771412032539 24.055357255841 22.632147161623 21.778868185173 
24.078039980545 22.651879550067 21.793642129431  24.09545175236 22.667143490848 21.805569872659  24.10438591501  22.67492515836 21.811437001808 
24.137012994381  22.70321038425 21.832195736729 24.172275995295 22.733375765101  21.85259842266  24.18092384601 22.740749825625 21.857483188334 
24.194000161808 22.751706823865 21.863899313489 24.226504354205 22.779203165482 21.881154328387 24.250803831178 22.799425756667 21.892381511514 
24.274171708585 22.818868635994 21.903156109978  24.30543118702 22.844479130127 21.915569020233  24.32375088598 22.859683640187 21.923824651008 
 24.33833894644 22.871640292709 21.929641759104 24.375655767518 22.902221230032 21.944498848152 24.422478713236 22.940143606055 21.960887682332 
24.431975926508 22.947975573968 21.964915094546 24.438820760027 22.953586227454 21.967647024865 24.489598236656 22.995082082344 21.987280821072 
24.529921968476 23.027786776594 22.001626235532 24.552884245287 23.046125858324 22.008366720037 24.602994141618  23.08654153525 22.025058465583 
24.615009782803 23.096110720244 22.028448846001 24.671013700089  23.14124937377 22.046949324878 24.676610729777 23.145700886077  22.04849884115 
24.733852842707 23.191942675258 22.067936278268 24.735413574807 23.193181384463 22.068355332079 24.787074240442 23.235264909217 22.087657512633 
24.799909358644 23.245461936539 22.091154697915 24.835844046792 23.274815796063 22.104987470013 24.878412114335 23.308913699131 22.117987360109 
24.887030516007 23.315787827986 22.120471799641 24.896561705254 23.323277471544 22.122654425049 24.939242241838 23.357515873927 22.135941726689 
24.978075567032 23.388004268406 22.144699068066  24.99238540026 23.399197780759  22.14771892412 25.006398818071 23.409837998361  22.14906257884 
 25.04486447823 23.439689931698 22.155990963023 25.094676191164 23.477181252847 22.159109882831 25.097721184801 23.479467609018 22.159272976627 
25.101220366198 23.482000444621  22.15898573347 25.151308814577  23.51907372963  22.15897771059 25.185273171247 23.543335196623 22.154567205202 
25.207622333219 23.559179145741 22.151059899907 25.255387959562 23.591721285691 22.136935989131 25.272840444183 23.603140731045 22.129412322665 
25.311797869954 23.628318183492 22.111046543252 25.346575105981 23.650020082239 22.090765929143 25.362126466488 23.659621764286 22.081181102757 
25.385439572766 23.673461385444 22.064029763571 25.407141270642 23.686659628745  22.04964639939 25.421154600037 23.694833955451 22.038611123977 
25.448830412479 23.710978556414 22.016819896475 25.477057055487 23.726882772335 21.991775062187 25.488423121776 23.733456243099 21.982540115951 
25.499924928186 23.739854985258 21.971923602121 25.527480510209 23.755247533202 21.946803683292 25.549188125174 23.766923281154 21.924755104895 
25.566646159723 23.776584825256 21.908385804483 25.588606239369 23.788340991762 21.885802811797 25.606391869924 23.797939880496 21.867901657955 
25.619837767474 23.804993196732 21.853347203889 25.647186741961 23.819730828042 21.825707205513 25.680085472745 23.836970663435 21.790006474416 
25.689129205903 23.841748561004  21.78038693389 25.697027553997 23.845805643484 21.771404885756 25.732653746474 23.864584045413 21.733293111158 
25.765350767825 23.881305260731 21.695738335312 25.775778312454 23.886692047457 21.684033445544 25.792443221258  23.89497472147 21.663689114312 
25.816564169571 23.907179136832 21.635326866368 25.827046648465 23.912306145492 21.622113709715  25.85586030433 23.926537294784 21.586488475021 
25.879978165777  23.93816413621 21.555238162454 25.892035632358 23.944110108084 21.540283879736 25.910159438143 23.952800825714 21.516566905446 
25.927102337025  23.96106878829  21.49511573901 25.937457128975 23.965989346161 21.481340629472 25.962877249198 23.978367961204 21.449025316777 
25.993576859663 23.992940774492 21.408107300577 25.999264373449 23.995688288706 21.400766181262 26.011374701915  24.00141910718 21.384535357023 
26.036058975278 24.013289161864 21.352401297915 26.047113857493 24.018501372087 21.337488881432 26.073044299535 24.030886244314 21.303308680663 
26.101093349103 24.044045275584 21.265142395865 26.109598598295 24.048076943099 21.253777581125 26.122823879682 24.054167244123 21.235208386418 
26.144619960106 24.064437929372 21.205777388089 26.160156230538 24.071488106682 21.183439577739 26.177484242577 24.079492415122 21.159233776931 
[...]
CELL_DATA 1
FIELD FieldData 6
ClosedSection 1 1 int
1 
SectionArea 1 1 double
        30.2884 
SectionLength 1 1 double
        19.9883 
SectionMinSize 1 1 double
        2.60002 
SectionMaxSize 1 1 double
        3.72699 
SectionShapeFactor 1 1 double
        0.69762 
