# vtk DataFile Version 4.2
vtk output
ASCII
DATASET POLYDATA
POINTS 466 double
33.213603778921  8.351844901963 16.058215912546  33.18148593753  8.311195762058 16.049737624526 33.149996334234 8.2707871478324 16.041757409826 
33.148447539166 8.2687350245314  16.04140363947 33.146677782723 8.2663616420162 16.041016465081 33.117239929396 8.2284590645949 16.033632200509 
33.095183634682 8.1999819896917 16.028146625377 33.087411043096 8.1896231998831 16.026407335261 33.067731296963 8.1638963308768 16.021703435262 
33.056354088015 8.1492411383277 16.018853452286  33.05239293023 8.1442649531417 16.017785549895 33.023976009363 8.1068112321297 16.011175953935 
33.007424287847 8.0857624017319 16.006866964813 32.989396365287 8.0618682131965 16.002753608061  32.95464041822 8.0164152851008 15.994456520116 
32.954262677658 8.0159020811488 15.994377849102 32.953781093174 8.0152523645524 15.994274812312 32.918292024027 7.9687658685074 15.985847526339 
 32.88090189734 7.9202489176918 15.976693418246 32.880349817139  7.919551464783  15.97654692027 32.879817325043 7.9188764211606  15.97640701997 
32.842037126004 7.8696068328092 15.967305072096 32.808132352286 7.8252003442973  15.95925113928 32.803788947201 7.8193330136181  15.95832637094 
32.799884249052 7.8140448301262  15.95750308709 32.765861856686 7.7693510647915 15.949501026038 32.736719776192 7.7313465651858 15.942480148601 
32.728678434994 7.7211715062524 15.940356084825 32.718225696454 7.7078854525299 15.937630860825 32.694055051385 7.6762141663127 15.931897609086 
 32.67104543296 7.6465683419743 15.926137735748 32.660150135427 7.6329632131843 15.923151289605 32.648352049162    7.6188787467 15.919529197696 
32.625658727949 7.5902885204199 15.913460260494 32.606927980095 7.5672589190792 15.908110554997 32.590150653395   7.54751561932 15.902788861576 
32.551911782347 7.5046814284374 15.889362850558 32.549098605064 7.5018763427658 15.888167744769  32.50381515915 7.4548973314753 15.870024023848 
32.503589653423 7.4546616478384 15.869934709361 32.502630032609 7.4537228921668 15.869516193161 32.455716049967 7.4078239410619 15.849058765532 
32.454990454076 7.4072192336654 15.848679345004 32.409420620235  7.367267710788 15.826032962754 32.403551496432 7.3630182517291 15.822579444941 
32.365302229356 7.3336024485957 15.801104315576 32.321452126521 7.3083999074416 15.771380180051 32.321326867104 7.3083171867004 15.771301699206 
32.321258774784 7.3082866604201 15.771250384756 32.273800847415 7.2845517148636 15.736959266117 32.264317127875 7.2815904820587  15.72903929786 
32.223760730385 7.2668475784426 15.696415870605 32.211096956836 7.2645094433784 15.684872081381 32.170896329248 7.2555089583137 15.649172225913 
 32.16052870811  7.254882885978 15.638949849206 32.114616344619 7.2492964132678 15.595366431966 32.110538912422 7.2494231608192 15.591122687307 
32.063835610106 7.2459114454315 15.545487883566 32.061320397177 7.2461629227417  15.54276626582 32.019637485965 7.2462628617295 15.500099520481 
32.015399151937 7.2467395538031 15.495481667704   31.9872299324 7.2488601778494 15.465417642739 31.976388657312 7.2495897064302 15.453899019224 
31.974243599523  7.249605047166 15.451697222913  31.93999364211 7.2527022431858 15.414832640928 31.917884646173  7.253907479916 15.391511550365 
31.900667230438 7.2563336905276 15.372459025991 31.874049128899 7.2598452618851 15.343147233465 31.861428815823 7.2608845715625 15.329624557783 
31.852975166672 7.2617087960426 15.320489756469 31.823305917797 7.2659543706024 15.287619467433 31.791536300793 7.2698901345478 15.252787849284 
31.785254814359 7.2710586116402 15.245667130096 31.763009320497 7.2742673722045 15.221006274112 31.745915252565 7.2765660726274 15.202156218673 
31.741789475924 7.2769603154994 15.197702810751 31.704868996528   7.28289332703 15.156409671701 31.692124280069 7.2842891877166 15.142546237674 
31.662955302698 7.2894346243997 15.109648233142 31.641474799542 7.2924707497486 15.085872744813 31.622094301965 7.2965748931537 15.063603999164 
31.591122374092 7.3021182508745 15.028624698305 31.582967283129 7.3040604372215 15.019125340893 31.558843189508 7.3094430461027 14.991241965854 
31.545568798434 7.3123106543563  14.97595544313 31.540507887274 7.3134261606951 14.970114088041 31.508923650576 7.3221786369815 14.932586433705 
31.485692958439 7.3284524942909 14.905082347633 31.471737570725 7.3329424720601 14.888127827509 31.435652945761 7.3442682259492 14.844458465478 
 31.43147335586 7.3458492374523 14.839239099415 31.392900001489 7.3596971081045 14.791514928665 31.389756463979 7.3609697871479 14.787539291955 
31.353038893204  7.375216561148 14.741473071828 31.348250273834 7.3772105839565 14.735383755461 31.314775926592  7.390736562044 14.693064453667 
31.306655015748 7.3941548488203 14.682715753327 31.277000004191 7.4065115470168 14.645000923642 31.264545680654  7.411792699946 14.629106775364 
31.239316898203 7.4223240817056  14.59700977271 31.222718394033 7.4292877449771 14.575871648093 31.201487929584 7.4380322254511 14.548932062885 
31.181168550302  7.446370362881 14.523167184472  31.16384433757 7.4533757680834 14.501262258729 31.139695803448 7.4631353403838 14.470731814071 
31.126473586883 7.4684280419705 14.454045832865 31.097931688882 7.4798959942183 14.418001207516 31.089193691502 7.4834062080773 14.406966671657 
31.055451345235 7.4972528390287 14.364181338202 31.052179238031 7.4986081293427 14.360024792303 31.033602449087 7.5066018722306 14.336247446207 
31.015679393856  7.514426285413 14.313239764378 31.012517129543 7.5158968570301 14.309126435162 30.979987146513 7.5312649596499  14.26666887775 
30.969529699429    7.5366381303 14.252760745049 30.945402355168 7.5492996068101 14.220513529539 30.927048654768 7.5599790070471 14.195355332673 
30.912242383443 7.5688058448285 14.174933005036 30.886019240787   7.58635442408 14.137615840443 30.880696528935 7.5899996454647 14.129991416693 
30.862780674265 7.6035092950411 14.103585266601 30.850960106326 7.6126303828986 14.086038549894 30.847635242616 7.6154398577081  14.08095692644 
30.822827604587 7.6366395514729 14.042899386863 30.812514663138 7.6460690176286 14.026708976676  30.79619808958 7.6612249292742 14.000951339504 
30.780760425287 7.6764282670353 13.976063682592 30.770809871117 7.6864020101619 13.959917635036 30.752175489185 7.7064302330258  13.92887197871 
30.745914397453 7.7132239618771 13.918402212587 30.725451849822 7.7370149669784 13.883233713871 30.721655226651 7.7414829530837 13.876676316962 
30.699569927406 7.7691962014796  13.83749941565 30.698477314906   7.77059291007 13.835545863962 30.691062248759 7.7807247251403 13.821896811885 
30.677662588088 7.7992176651736 13.797121647083 30.675495184306 7.8024460013382 13.792972215043 30.659818756596 7.8265455902873 13.762511065855 
30.649764866865 7.8430588556757 13.742341790605 30.643091172622 7.8543138170097  13.72877770598 30.638857307536 7.8618607188797 13.719928903118 
30.624200109311 7.8893496183048 13.688479157513 30.612396570865 7.9125367155595 13.662523388183 30.601414164944 7.9346366473767 13.638058236213 
30.589993169015 7.9593204345841 13.611596873857 30.579697604649 7.9826580780736 13.587092318069 30.570717738529 8.0049637716916 13.564550830416 
30.561347628335 8.0304356160784 13.539713716956 30.554662459937 8.0510550262173 13.520527986528  30.54662627247 8.0790478678228 13.495544121972 
30.541236578592 8.1005498566972 13.477153859811 30.535079369631 8.1291567215702 13.453722784036  30.53033794606   8.15504994574 13.433364524918 
30.526742085004 8.1797458584436   13.4148944893 30.522753358193 8.2175348766198 13.388179252952 30.521862501076 8.2323181788566 13.378412483728 
30.520503676175 8.2854919938413  13.34516894549 30.520553426681 8.2881226727329 13.343643850078 30.523581951462 8.3474796529917 13.311180793294 
30.523877050989 8.3508339501093 13.309472990786 30.530981394846 8.4055551971523 13.283953207102 30.533988709441 8.4244957997691 13.275680523572 
30.541699247285 8.4611662714796 13.261593966087 30.551679313698 8.5036391719491 13.246351210341 30.554736562108 8.5144985356266 13.242970758153 
30.560060936416 8.5327204249671 13.237497051692 30.570555825991   8.56707003101 13.227646915592 30.576992417697 8.5878943889474 13.221751031592 
30.587774431881 8.6188586458944  13.21422243017  30.60640085348 8.6710851640004  13.20197463413 30.606428347456 8.6711571255616  13.20195962787 
30.606477642518 8.6712817012211 13.201935386663  30.62697282903 8.7218764225449 13.192575332507 30.643040915534 8.7604674700469 13.185881030749 
30.650110088913 8.7767025024719 13.183381056684 30.655510444075 8.7887048538641  13.18171092532 30.676519676337 8.8354980888046 13.175153650484 
30.686649928073 8.8572918007543 13.172452595566 30.702972759283 8.8921704095012 13.168242678934 30.718927685673  8.925914501465 13.164336352075 
30.731051650364 8.9514533668418 13.161429611895 30.752207137429 8.9958846997513 13.156436767612 30.761547047651 9.0157748039913 13.154068237599 
30.786354314913 9.0679277856415 13.148182348067 30.793551037957 9.0832917267226 13.146334591685 30.821102096798 9.1425150589593 13.139017711551 
30.823203906748 9.1470706678347 13.138437003594 30.829684588085 9.1615260532275 13.136401617648 30.849936162066 9.2066822680483  13.13005057202 
30.857076349137 9.2231574350163 13.127479329474 30.873526634347 9.2608726408888 13.121700384848 30.887311462521 9.2936754136695 13.116139768054 
30.893199213052 9.3076386493317  13.11379313798 30.905214412724  9.337072938403 13.108441608273 30.908678507614 9.3456100933935  13.10686817581 
30.912127727304 9.3542091272015 13.105242468958 30.923849462957 9.3834664120889 13.099697007244 30.929621246117 9.3977956512448 13.097012579178 
30.942468645842 9.4305097028869 13.090546904195 30.958135626182 9.4698310139955 13.083005129492 30.963754278037 9.4842972302592 13.080082117489 
30.973485572115 9.5087930925896  13.07535449661 30.985790732984  9.539855818414 13.069323815404 30.997807994767 9.5691424033498 13.064062877954 
31.008855524501 9.5964465384979 13.058998329976 31.016968669875  9.615680604717 13.055768851717 31.033101192669  9.653859180888 13.049387511881 
31.052626278209 9.6976704646713 13.043099575761 31.057685356019 9.7089441165021 13.041517140818 31.071997813572 9.7389337611232 13.038181096856 
31.083191090633 9.7625348644392 13.035483885173 31.087136594249 9.7703216897458 13.034852029137 31.110427616292 9.8157377176043 13.031452160484 
31.122105365004 9.8371025448198 13.030589835137 31.139728780829 9.8689724377177   13.0295117501 31.158463297179 9.9008613604339  13.02955799469 
31.171517746954 9.9228043843963 13.029756509378 31.196553783763 9.9627791842348 13.031399987818 31.205740996305 9.9772219029474 13.032138715563 
31.236259233897 10.023175578313 13.035804178493 31.242214113587 10.031978616369 13.036617461459 31.277291503912 10.081965849983 13.042526772367 
31.280839932898  10.08692808509 13.043181154215 31.319265382024 10.139024292128 13.051249325645  31.32123624718 10.141641415331  13.05169605001 
31.362076085781 10.194371921854 13.061852142594 31.363345298178 10.195983301334 13.062184167285 31.405597420271  10.24835244385 13.074000329415 
 31.40680953582 10.249834979601 13.074351177442 31.449594209036 10.300869208006 13.087511396349 31.451424791863 10.303027986149 13.088089307484 
31.494069407237 10.352046158677 13.102314113286 31.497086082635 10.355479369191 13.103340940168 31.539388681907 10.401887790674 13.118779560131 
31.544510394918 10.407485125643 13.120661633846 31.584916471444 10.449774595821 13.136629213025 31.592174194395 10.457393406778 13.139483648208 
31.628818367949 10.494349034518 13.154801256678 31.633858551447 10.499453200646 13.156895434046  31.66800038935 10.532182098891  13.17218732626 
31.670215948219 10.534305825022 13.173179745456 31.670547902301 10.534608708112 13.173337611017   31.6779274304 10.541329383165 13.176854593491 
31.706793302486 10.567640823852 13.190598047009 31.708263403383 10.568981865002 13.191297363535 31.739497698012 10.596163079257 13.206940687976 
31.752492631089   10.6073713259 13.213509200398 31.773772499739 10.624789031285 13.224826424488 31.803501065399 10.648975061726 13.240724954223 
31.810033239609 10.654006801369 13.244387582713 31.824177229764 10.664828089183 13.252362436432 31.847395878156 10.682861456983 13.265292594165 
31.858680773982 10.691580136348 13.271604577429 31.885883423719 10.711434892587 13.287515917061 31.914472846483 10.732317033319 13.304229299115 
 31.92427770795 10.739076348272 13.310202228275 31.944272539599 10.752673838015  13.32249448962 31.962530938263 10.765453859651 13.333501544205 
31.974712540008 10.773890048531 13.340899340493 32.001756783176 10.792073827393 13.357649786975 32.027965474683 10.808955500764 13.374326206894 
32.043905142923 10.819846505186 13.384094777784 32.067078299215 10.834750328226 13.398853237013  32.08955921842 10.849099582658 13.413236337549 
 32.10468543267  10.85825067302 13.423215745343 32.137492733243  10.87985801137 13.443806059978 32.174664914923  10.90304111931   13.4679140208 
32.184625582485 10.909859963965 13.474010547545 32.206680462619 10.924188255042 13.487970723639 32.230819400604 10.939931366735 13.503213583761 
32.241593486453 10.946664970778 13.510192624129 32.275334331282 10.969371615695 13.531078619895 32.310261659086 10.992119236788 13.553152851398 
32.318350276099 10.997817706719 13.558007008526 32.328109867583 11.004566496883 13.563939969262 32.361306611198 11.027150550082 13.584343243453 
32.403027930496 11.054662035862  13.61050819892 32.407484263396 11.057818851777 13.613172173911 32.410856381463 11.060162523815 13.615215027188 
32.455853116727 11.090769306745 13.642873717683 32.498391557866  11.11902864609 13.669425894523 32.511305793866 11.127456879765 13.677577330689 
32.521411691936  11.13351557418 13.684277686905 32.568916514808 11.165592844051 13.713619142672 32.588340674595 11.177282325056 13.726471104384 
32.619986656325 11.197882202512 13.746477892772 32.647979703474 11.213633645317 13.765655303279 32.667413644959 11.225095904137 13.778653384466 
32.704435651551 11.243655562124 13.805377590257 32.712155417315 11.247718268397 13.810834649413 32.738456112017 11.259202366413 13.830838612577 
 32.75575023238 11.267080705425 13.843796442669 32.760639325294 11.268932532681 13.847684544005 32.798531274609 11.283786587348 13.877517874852 
32.816126657173 11.289535210519 13.892059484153 32.840941669902  11.29750945724 13.912647463461 32.870302149697 11.305299575819 13.937991971717 
32.883347731237  11.30844132898 13.949444612478 32.923210867987 11.316125037341 13.985588331487 32.925621192974 11.316512840664 13.987819765382 
32.935884662894  11.31764886616 13.997630186907 32.967826097911 11.321724597038 14.027838022291 32.975004271835 11.322271386034 14.034847748817 
33.009404167828 11.323564073215 14.069235765841 33.027191858105 11.323253220473 14.087603968029 33.050636419602 11.322040315776 14.112294822577 
33.081177614393 11.318790714734 14.145459732238 33.091453228561  11.31732359083 14.156842023954 33.110134759158 11.313275285874  14.17836285809 
33.128099744204 11.310064500553 14.198649534332 33.141047750976 11.305981562043 14.214330500269 33.160102300324 11.299905088432  14.23744762735 
33.171374942273 11.295257536273 14.251754331997 33.188322362175 11.288769949329 14.272963905729  33.20308942103 11.281966924142 14.292133755584 
33.220601810661 11.273968594098 14.314825856369 33.234007398976 11.266531138664 14.332984121864  33.25502707042 11.254744876869 14.361530467479 
33.264949773692 11.248376016711 14.375488486109 33.290298372439 11.231949784644 14.411239361848 33.296472896047 11.227283838933 14.420345959668 
33.324541525561 11.206387223258  14.46155521189 33.327728408593 11.203634823143 14.466461604642 33.358250579738  11.17829280257 14.512841873199 
33.358937131736 11.177650200173 14.513928604515 33.367695039365 11.169915449394 14.527514265878 33.390159563905 11.150207349241 14.562283191217 
33.392019419522 11.148672686407 14.565103636729 33.422240589557 11.121125411968 14.612497323333 33.426852479329 11.117201096624 14.619562364103 
33.454932964718 11.090941644787 14.663996424615 33.463594711118 11.083383676498 14.677377888918 33.486859454649 11.060859936582 14.714651523671 
33.505036435025 11.043802160241 14.743450147705 33.514746204697 11.034239469667 14.759103826051 33.532835726703 11.017238170311 14.787779219662 
33.541693024754 11.009175809291 14.801662734547 33.546104623394 11.005237400098 14.808531487569 33.567746981152 10.985205980608 14.842653710998 
33.580837381339 10.973393413867 14.863110779569 33.593648834725 10.961441231678 14.883366356852 33.613866469912  10.94307560352 14.915034358643 
33.620116893005  10.93718413885 14.924952704384 33.646260064148 10.912852929567 14.966251363775 33.646900041635 10.912234749339 14.967275857708 
33.650055616712 10.909186904867 14.972327239011 33.673842100237 10.886412970097 15.010284061988 33.678737349751 10.881648102295 15.018142289491 
33.700666725747 10.859454410079 15.053853236131 33.711344110384 10.848305887044 15.071445995438  33.72700301096 10.831299752038 15.097639786127 
33.743974680973 10.812323562975 15.126355636981 33.752728155801 10.802140110267 15.141403699895 33.776494116258 10.773790017049 15.182680028491 
 33.77789974954  10.77204678552  15.18516112944 33.782443976576 10.766273880602 15.193264433688 33.802546479885 10.741080834259 15.228904821563 
33.808679823785 10.733235394231 15.239874051913 33.826922661321   10.7088257498 15.273144242756 33.840019851177 10.691190386844 15.297096487266 
33.851273721729 10.675238277332 15.318156173636 33.870576015591 10.648071697598 15.354160889802 33.875635906902 10.640529521922 15.363851197697 
33.896090625571 10.611088499497 15.402396423821 33.899948879795 10.605637543908 15.409605680937 33.900966771207 10.604311548061 15.411440493674 
33.924529773524 10.571110431891 15.455415445284 33.932274180223 10.560817399987 15.469497717668  33.94865273501 10.537358277071 15.500292876588 
33.963232272961 10.517741613115 15.526947256542 33.972126738508  10.50476403409 15.543813299856 33.992932170088 10.476809118484 15.581826737785 
33.996336881211 10.471766290935 15.588327902949 34.017718370209 10.442480129448 15.627727670823 34.021640738945 10.437175345602 15.634914897212 
34.022329160994 10.436329114969 15.636125526663 34.048351048772 10.400409011404 15.684242719893 34.053760463841 10.393594823505 15.693854186973 
34.075985494722 10.361586919526 15.735746696863 34.087608077739  10.34578465811 15.757093499951   34.1032531298 10.321542738608 15.787607843313 
34.124707002263 10.289787887925  15.82856050543 34.130426863109 10.280061054952 15.840234164679 34.146295470118 10.254427297255 15.871810820529 
34.157234225971 10.237505861397 15.893129097089 34.161653343733  10.23087447178 15.901618807312 34.182749948396 10.193093550453 15.945816292697 
34.194194494027 10.174163647714 15.968854773647   34.2074983905 10.146936411829 15.998764465966 34.222051301415 10.120644042066 16.029390813051 
34.231327759095 10.100026608536 16.051224088449 34.244599442757 10.073449478382  16.08071139806 34.253125336617 10.050933280922 16.102914956048 
34.262215607223 10.029337208147 16.125144186171 34.270329228152 10.002396480015 16.149576915834 34.276899486676 9.9827381934004 16.168069413386 
 34.28302987792 9.9559635099725 16.190375480471 34.288686013678 9.9315365476271  16.21079034101 34.292122069193  9.906555325201 16.229267947941 
34.295743914757 9.8767810748772  16.25080680043  34.29675606427 9.8539734760839 16.265504629135 34.297265146863 9.8214336835088 16.285518460287 
34.296001494814 9.7967108819528 16.299037372597  34.29362682087 9.7681160896376 16.313740211256 34.288262606477 9.7299985721786  16.33109197701 
34.285580079422 9.7148265076016  16.33743904672 34.277875547288 9.6811863586184 16.349716381532 34.273567851368 9.6618629721656 16.356889171392 
34.270784883116  9.651824952935 16.360057944526  34.25790235923 9.6094968584047 16.372247157254 34.242189315113 9.5641451221819 16.383354466164 
34.240468309353 9.5594687527428 16.384396762881 34.238349772836 9.5541883950826 16.385394545425 34.221632384551 9.5121542044681 16.393487820575 
34.201694965323 9.4667848787231 16.400287652049 34.201655475091  9.466697968022 16.400299351651 34.179312606544 9.4201649626545 16.405337533624 
 34.17077636604 9.4038402095839 16.406391669359 34.153837105692 9.3707690674423 16.408888702067 34.134583505894 9.3361182338202  16.40996643304 
34.124902285834 9.3183951514007 16.410687899769 34.094701246708 9.2671481767738 16.410517698944 34.093345319348 9.2648857031164 16.410487085119 
34.092859274873 9.2641305906958 16.410442628468 34.059741014133 9.2121571286572 16.407725754919 34.044082729344 9.1891076240887 16.405528541567 
 34.02515825101  9.161039232719 16.402999376048 33.997584721063  9.122741732367  16.39775734504 33.989306439915 9.1115516511776 16.395999153903 
33.982212852622 9.1026530895167 16.394079147062 33.951185845055 9.0635777751974 16.385773048371 33.919091428874 9.0263717708935 16.375256041396 
33.910876319642 9.0167548887708 16.372619973341 33.884546403615 8.9884102099644 16.362686731759 33.867804464924 8.9706232174232 16.356229254801 
33.862913035345 8.9658551656332 16.354085774233 33.823045731199 8.9263004609992 16.337030606706 33.808885937191 8.9134511231025 16.330254533459 
33.777784280847 8.8847144624394 16.315678601561 33.755817495791 8.8661013077946 16.304375386829 33.732537937816 8.8458883314483 16.292688697434 
33.702500310933 8.8215935246318 16.276539419835 33.687395931347 8.8089962022035 16.268646849109 33.648680690623  8.778396023228 16.247404935685 
33.643738497761  8.774333599536 16.244786849207 33.633152999699 8.7657295531604 16.239121094248  33.60419756507 8.7428329253562  16.22324039664 
33.574873785913 8.7188824629806 16.207614505429 33.565459656515 8.7111927114499 16.202598361864 33.561394766546 8.7076961766674 16.200538020544 
33.523190795218 8.6761751908382 16.180370333097 33.511758185576 8.6659347185793 16.174819015194 33.479866610078 8.6382095754538 16.158829689239 
33.464607838004 8.6238038161595 16.151862675646 33.435478170411 8.5966679778016 16.138343447321 33.419803417017 8.5808895508351 16.131773549273 
33.387843106389 8.5495182849227  16.11789823059 33.375215316221 8.5361465536905 16.113001068118  33.34124838751 8.5014422239045 16.099071374914 
33.328028419221 8.4865286881875 16.094492549532 33.300439791322 8.4562917305148 16.084406293648 33.284353331756 8.4373784177214 16.079293564987 
33.263412717882 8.4129885465496 16.072499899077 33.249962172133 8.3966580477085 16.068534238726 33.218724373233 8.3580413602419 16.059737928716 
33.215516672215 8.3541850535231 16.058769304144 
POLYGONS 1 467
466 0 1 2 3 4 5 6 7 8 9 10 11 12 13 14 15 16 17 18 19 20 21 22 23 24 25 26 27 28 29 30 31 32 33 34 35 36 37 38 39 40 41 42 43 44 45 46 47 48 49 50 51 52 53 54 55 56 57 58 59 60 61 62 63 64 65 66 67 68 69 70 71 72 73 74 75 76 77 78 79 80 81 82 83 84 85 86 87 88 89 90 91 92 93 94 95 96 97 98 99 100 101 102 103 104 105 106 107 108 109 110 111 112 113 114 115 116 117 118 119 120 121 122 123 124 125 126 127 128 129 130 131 132 133 134 135 136 137 138 139 140 141 142 143 144 145 146 147 148 149 150 151 152 153 154 155 156 157 158 159 160 161 162 163 164 165 166 167 168 169 170 171 172 173 174 175 176 177 178 179 180 181 182 183 184 185 186 187 188 189 190 191 192 193 194 195 196 197 198 199 200 201 202 203 204 205 206 207 208 209 210 211 212 213 214 215 216 217 218 219 220 221 222 223 224 225 226 227 228 229 230 231 232 233 234 235 236 237 238 239 240 241 242 243 244 245 246 247 248 249 250 251 252 253 254 255 256 257 258 259 260 261 262 263 264 265 266 267 268 269 270 271 272 273 274 275 276 277 278 279 280 281 282 283 284 285 286 287 288 289 290 291 292 293 294 295 296 297 298 299 300 301 302 303 304 305 306 307 308 309 310 311 312 313 314 315 316 317 318 319 320 321 322 323 324 325 326 327 328 329 330 331 332 333 334 335 336 337 338 339 340 341 342 343 344 345 346 347 348 349 350 351 352 353 354 355 356 357 358 359 360 361 362 363 364 365 366 367 368 369 370 371 372 373 374 375 376 377 378 379 380 381 382 383 384 385 386 387 388 389 390 391 392 393 394 395 396 397 398 399 400 401 402 403 404 405 406 407 408 409 410 411 412 413 414 415 416 417 418 419 420 421 422 423 424 425 426 427 428 429 430 431 432 433 434 435 436 437 438 439 440 441 442 443 444 445 446 447 448 449 450 451 452 453 454 455 456 457 458 459 460 461 462 463 464 465 

CELL_DATA 1
FIELD FieldData 6
ClosedSection 1 1 int
1 
SectionArea 1 1 double
        15.1711 
SectionLength 1 1 double
         14.249 
SectionMinSize 1 1 double
        1.88781 
SectionMaxSize 1 1 double
        2.60021 
SectionShapeFactor 1 1 double
       0.726023 
