# vtk DataFile Version 4.2
vtk output
ASCII
DATASET POLYDATA
POINTS 437 double
28.579176382661 32.635206520055 36.538192661116 28.570903098832 32.597016021295 36.509610897966 28.560953422766 32.550593456046 36.474988433735 
  28.5609267873 32.550464579688 36.474893424843 28.560904695245  32.55035866723 36.474815117429 28.550744974575 32.504628929804 36.440306445412 
28.542076102037 32.466134235046 36.411126514214 28.540615627525  32.46001599261 36.406395832898 28.538988281424  32.45334177585  36.40119688243 
28.530109992948 32.416575300736 36.372654268413 28.521456597102 32.382766856252  36.34585804018  28.51948296145  32.37529775263 36.339868551259 
28.517601972191 32.368709929818 36.334428179436 28.507963688577 32.334961692741 36.306555529776 28.497985603747 32.303406452396 36.279408357519 
28.494679995294 32.292911104755 36.270393895045 28.485504160932 32.265816673222 36.246400770931 28.479604108758 32.248587952547 36.231070656853 
  28.4778269752 32.243632770239 36.226571396386 28.462318336791 32.200901411501 36.187565601011 28.458071886988 32.189586144117 36.177079798782 
28.443085061393 32.150557392388 36.140530041892 28.438299533166 32.138390134363 36.129008209466 28.423357783576 32.101880285012 36.093781022626 
28.418308913932 32.089484170911  36.08184768518 28.403835518903 32.055740539971 36.048543633067 28.398344010174 32.042331331676 36.035601295725 
28.384810560357 32.010491006454 36.004314629277 28.378755037127 31.994862749269 35.989617945831 28.367027966986 31.965221675833 35.961471806708 
28.360127685343 31.945085608551 35.943549571246 28.351101407466 31.919019452889 35.920243744928 28.342931693449 31.890850486459 35.896838721455 
28.337327780248 31.871241624263 35.880639563789 28.327725076664 31.828755231519 35.848394589695 28.326072534609  31.82154605946 35.842897199538 
28.323460179149 31.804962165643 35.831587423179 28.317220404944 31.770789614249 35.807319783115 28.314756478391  31.74972240025 35.793912970957 
28.310742861408 31.718209091236 35.773489877918 28.308234559197 31.680604723765 35.751682802507 28.306251667401 31.662369869561 35.740246773082 
28.304782873832  31.64029935022 35.727451681083 28.302308752519 31.605448467604 35.707073383556 28.301681837947 31.576118529046 35.691558775134 
28.298802510981 31.543511405593 35.671858085459 28.297382306366 31.515655875401 35.656196471504 28.296788715467 31.479497000868 35.637271058571 
28.296532495778 31.424316662771 35.609119945827 28.296656978223 31.417590943071 35.605863704907 28.297201213314 31.402521904524 35.598866246979 
28.297388699273 31.355511719596  35.57533927148 28.297756942405 31.334609523217 35.565198594473 28.299803496617 31.292996326405 35.546486046881 
28.305905982895 31.247396467924  35.53031852632 28.306480721643  31.23258661447 35.523486223445 28.309341040348 31.209824389043 35.515206939543 
28.313193813726 31.175327426922 35.502117556914 28.316947130627 31.153531437498 35.495329728356  28.31975623059 31.120940939056 35.482030123035 
28.326837076962 31.072883931563 35.465721358491 28.327550166823 31.067727200071 35.463918854856 28.328276814001 31.063931455316 35.462818813813 
28.332604633577 31.014031758365 35.442485719258  28.33982969424 30.972807825877 35.429789367487 28.340755542166 30.958550362494 35.423630571255 
28.347193567273 30.925426155603 35.414139679878 28.352119081544 30.898411621531 35.406034083167 28.355840758413 30.887135761003 35.404522809691 
28.367609129593 30.835883988902 35.391868726441 28.381459985148 30.805438876763 35.392061222157 28.391740094685 30.777362471065 35.389436963565 
28.420968437945 30.726365386357  35.39653310939 28.422014809171 30.724114597845 35.396572497951 28.424665298262 30.719798317132 35.397371639118 
28.451246945781 30.672833427838 35.403529458617 28.469087007842 30.646735396563 35.410400096872 28.480722346138 30.627298703528 35.413661453745 
28.489805632937 30.613461429813 35.416882211809 28.511611965496 30.579585625438 35.424282802786 28.531867509261 30.552559511751 35.433399341564 
28.549670079516 30.528381547261 35.441197379139 28.575447391953 30.496742860256 35.454190208753   28.5919971653 30.475800477368 35.462214144068 
28.619778705058 30.444708561202 35.477735427371 28.637892558491 30.424296293087 35.487784765731 28.665214331224 30.398120061467 35.505271522405 
28.690809409608 30.373397016447 35.521551592099 28.712697289759  30.35521272402 35.536967215841 28.747685466025  30.32609174798 35.561582583324 
28.765130725779 30.314338279002 35.575252790561 28.803513663312 30.287243096976 35.604706131428 28.818481505375  30.27793390442 35.616826432405 
28.860936281379 30.251049258623 35.650962040431 28.870334615305  30.24552440352 35.658734185067 28.902438404646 30.226979035769 35.685448187091 
28.915598650439 30.218958883053 35.696187997517 28.920105576161 30.216515960336 35.700019361086  28.95610733341 30.196846038075 35.730546082772 
28.981087026272 30.183819025672 35.752040460325 28.987724033697 30.180427313881 35.757786534342 29.018221738764 30.164469516933  35.78400219616 
29.025696060776 30.160926440829 35.790612818497  29.05843073338 30.144739903414 35.819226896442 29.069021324625 30.140109196285 35.828790405022 
29.100691622591 30.125185538049 35.856846019754 29.116071701459 30.118827185494 35.870919614177 29.143272971587 30.106468092507 35.895247878305 
29.165181550399 30.097929409937 35.915557289511  29.18560415127 30.088996113372 35.933997490121 29.214912047301 30.078189643971 35.961477186888 
29.227350218644 30.072978845793 35.972824101984 29.264058012078 30.060192770302 36.007620252459 29.268291641064 30.058476820619  36.01151156664 
29.287756923879 30.052020730641 36.030126786428 29.308423252611 30.045007054526 36.049810197393 29.312827633156  30.04385203732 36.054176644668 
29.347927353703 30.032713140586 36.087997371547 29.361931481248 30.029421000891 36.102072939697 29.387039025056 30.022196758234 36.126641090774 
29.412063119498 30.017223363212 36.152252020725  29.42593456761 30.013808567671 36.166116548145 29.463937475661 30.007476556946 36.205627120088 
29.464917093868 30.007270560871 36.206624003933 29.467814365279 30.006857422323 36.209671362322 29.503786315916 30.001407596132 36.247344988516 
29.515986973991 30.000212767326 36.260452838251 29.542221570023 29.996655793402 36.288139355658 29.565409722374 29.994436238071  36.31307758681 
29.579958655223  29.99257328138 36.328487072879 29.611498760551 29.989800276387 36.362531817783 29.616976342156 29.989161757208 36.368365139456 
29.647552776453 29.986765098674 36.401516940043 29.653554156021 29.986275697219 36.408014205745 29.654611812439 29.986233884843 36.409181693559 
29.690296560893 29.983838530064 36.448074907727  29.69646162023 29.983677658621 36.454922008165 29.727473995628 29.981952162637   36.4889026239 
29.738513751529 29.981765867023 36.501215100816 29.763940516128 29.980399150353 36.529099737063 29.780182383114 29.980093208568 36.547197963773 
29.798690515173 29.979157873869 36.567525222928  29.81894246405 29.978679121978 36.590042744609  29.82849040755 29.978282691851 36.600572606571 
29.849135360275 29.977857997176 36.623559084477 29.867544387661 29.977323117591 36.643977177975 29.885358343299 29.977418225691 36.664044636819 
29.911786117309 29.977126568973 36.693597062466 29.924651737292 29.977425402433 36.708206421497 29.958021169614 29.977734909961 36.745863482328 
29.965484166181 29.978040105087 36.754404551835 30.004419009214 29.979084002039 36.798686883946 30.006534813246 29.979203641132 36.801125049144 
30.023067228275 29.979892691086 36.820052214103 30.047598910336 29.980848205989 36.848103555952 30.050779825779 29.980930839694  36.85172001421 
30.088564745559 29.982984043058 36.895219702116 30.097525625204 29.983380007373 36.905489935624  30.12952251758 29.985726642585 36.942633169964 
30.145103035754 29.986766598366 36.960667776317 30.170426097096 29.989183990841 36.990346646493 30.194000199605 29.991321422392 37.017918660286 
30.211505992421 29.993371381408 37.038626900833 30.243596002838 29.997008072708  37.07652619235 30.253580528432 29.998421876476 37.088460760994 
30.292989365544 30.003882365073 37.135505917325 30.296900716581 30.004537667855 37.140232411446  30.33982803319 30.011679933986 37.192080866232 
30.341813981428 30.012084956136 37.194517202132 30.382933985158 30.020340911881 37.244896942192 30.389819706142 30.022069279107  37.25350789294 
30.423372339314 30.030204097644 37.295322206931 30.438409505026 30.034561747426 37.314421451556 30.461615087348 30.041149096413 37.343826294567 
30.483597808327  30.04841893815 37.372201501368 30.498043073464 30.053205057018 37.390851918818 30.525892586321 30.063852146465 37.427525595503 
30.533145948098 30.066650889791 37.437090186954 30.565776038653 30.081046659433 37.481029193154  30.56713894619 30.081657308864 37.482869183008 
30.575108450943 30.085698144966 37.493865771983 30.600207082832 30.098249582185 37.528409587077 30.604416866527 30.100594164873 37.534324459271 
30.632449876123 30.116565953529 37.573893044065 30.642566888406 30.122993620527 37.588508239566 30.663710694878 30.136690067693 37.619185767097 
30.680661348941 30.148926631541 37.644413839475 30.693879753564 30.158697661589  37.66420262167 30.719017213386 30.179272579546 37.702841508041 
30.722924443184 30.182551473226 37.708888146243 30.733347121621 30.192173509713 37.725459840025 30.751042982613  30.20803810865 37.753357347685 
 30.75736707283 30.214158370805 37.763554810461 30.778315079604 30.235075474744 37.797658349357 30.794178011792 30.252047485363 37.824055184929 
30.804474713165 30.263560716354 37.841440258761 30.826616959265 30.290086309278 37.879717883502 30.828239046375  30.29214714109  37.88258140688 
30.833489437303 30.299236437271  37.89206155098 30.849860008372 30.320714032219 37.921303957642 30.853710764918 30.326197114554  37.92840013031 
30.869689691476 30.349929285525 37.958340846864 30.874454002945 30.357215291023 37.967374059711 30.891603251358 30.385427972696 38.000892413743 
 30.89443237372 30.390216260946 38.006489633047 30.914437112387   30.4259383855 38.047008878898  30.91460721339  30.42624676298  38.04735575389 
30.915893543701 30.428666371793 38.050023115221 30.935449473092 30.464959880866 38.090326505574 30.937934556892 30.469635923992 38.095480414311 
30.956087622597 30.504657937762 38.133565219399 30.961624635615 30.515362370415 38.145192925159 30.976330231963 30.544667003815 38.176516466036 
30.985392494409 30.562605876053 38.195758880931 30.996035477108 30.584413289602 38.218731129188 31.009229800231 30.611237616188 38.247103867185 
31.015061626552 30.623534726586 38.259867104549 31.032714052475 30.660353031569 38.298296320216 31.033593781056 30.662255912486 38.300245819555 
31.036976935278   30.6695262043 38.307718944703 31.051909688308 30.700685849026 38.340234448927 31.055807473566 30.708799176483 38.348711608344 
31.069973955262 30.739235552765 38.380000759509 31.077928418882 30.756202865068 38.397507636467 31.087825636706 30.778237572006 38.419756560734 
31.098738847273 30.802229082899 38.444135347155 31.105677818971 30.818303372751 38.460050078551 31.118493071296  30.84736310015 38.489125574384 
31.123730402293 30.860175424121 38.501480869987 31.137426672566 30.893021775075 38.533458505212 31.142385627903 30.906164192471  38.54566764035 
31.155333789389 30.939382941697 38.576992587825 31.161630506914 30.957932334923 38.593435347142 31.171693835942  30.98563884407 38.618734910323 
  31.1828339279 31.022991494846 38.650115341085 31.185374358658 31.031728834307 38.657382190338  31.19005198516 31.050007167476 38.671868533996 
31.197928217723 31.079571848189 38.695648503563 31.200784643108 31.091531756697 38.704897697596 31.209172835251 31.128249449535 38.732864905816 
31.215121205035 31.158401638807 38.754774992143 31.218513491926 31.176534327187 38.767743320178 31.226095512881 31.224249494732 38.800357695098 
31.226262554985 31.225361471777 38.801106908037 31.226697222071 31.228900136519 38.803382229381 31.232626925396  31.27509700502 38.833373058219 
31.234042681971 31.289226189786 38.842098590206 31.237483009715  31.32609161145 38.864579952906 31.239340627697 31.353186868605 38.880349236788 
31.240970445416 31.378552125962 38.894988958316 31.242572354448 31.416406153168 38.915903488478 31.243213615205 31.432600953357 38.924801664499 
31.243962853166 31.479223558202 38.949185628594 31.244086509643 31.488155328376 38.953834669159  31.24350757898 31.542174531553 38.980460922611 
31.243470561008 31.545191674282 38.981942820136 31.242160143278 31.579388504554 38.997737767056 31.241255787096 31.603779058187 39.009037394009 
31.241110912553 31.606057696962 39.010025175953 31.237520051438 31.663589384691 39.035040223359 31.236789407285 31.671591558137 39.038259798052 
31.231975945475 31.725855860598 39.060251021299 31.230090558722 31.741638476492 39.066101603707 31.224791316215 31.789286017082 39.084205786495 
31.220483965517 31.817895802473 39.093811597376 31.215830038259 31.853473425502 39.106546315266 31.208205460196 31.896593140176 39.119750957291 
 31.20435200277 31.916378208204 39.125410837655 31.195361238774  31.95750545215 39.136074058395 31.190938522031  31.97860025393 39.141755548323 
31.189065726245 31.987076835421 39.143931117038 31.176045700048 32.040689730397 39.156370825582 31.166968112564  32.07486756181  39.16342738535 
 31.16004973178 32.098934162733 39.167804834915 31.146780784584 32.141085917103 39.174177530674 31.142740513612 32.154640509966 39.176481406215 
31.140253687908 32.162386197722  39.17759786135 31.124307253275 32.208463178588   39.1829436132 31.110576358767 32.245160393217 39.186042913716 
   31.104779569  32.25956123636 39.186800114428  31.09323120718  32.28656680706 39.187458387799 31.084024084442 32.309020289157 39.188449194656 
31.079327636176 32.320063671052 39.188747624474 31.062527447774 32.357196610999 39.188617651794  31.04621405695 32.391642156694 39.187677752368 
31.039768301945 32.404547607613 39.186950547402 31.024567003651 32.433272349026 39.184371718903 31.015144445909 32.451523673549 39.182998549777 
31.010796830364 32.459447372124 39.182113723814 30.988642423607 32.497679860572 39.176521861435 30.973900373525 32.521358709716 39.171911228461 
30.960051951243 32.542509383044  39.16702826402 30.936243090415 32.576513433191 39.157441976683 30.929741893511 32.585425950617 39.154636244148 
30.899943326958 32.623924281748 39.140588063986 30.899274638457 32.624766101227 39.140261662292 30.894530830114 32.630407534888  39.13777916853 
30.868627827537 32.661587721461 39.124413568924 30.864042556799  32.66690527966 39.121945700618 30.838874600177 32.696162137479 39.108434970268 
30.822727388994 32.714049442848 39.099320783192 30.808369300091 32.730328039514 39.091404909502 30.775204025873 32.765703051631  39.07199609031 
30.774936553788  32.76599459168 39.071842715922 30.774311374163 32.766634865084 39.071463439596 30.739653895831 32.803044667938 39.050900187081 
 30.72448093844 32.817999828054 39.041400293191 30.702575581683 32.840030202332 39.027907098384  30.67243731302 32.868744257633 39.008536613667 
30.664301378505 32.876640465609 39.003380569953 30.639852888654 32.899402391944 38.987398781695 30.625332979608 32.913271274457 38.978084274485 
30.620319312202 32.917939931635 38.974807310415 30.586089230401  32.95046399579 38.952762274904 30.568243164192 32.967278900935 38.941197398207 
30.546535912094 32.988177999078 38.927355599641 30.515926083788  33.01761860873 38.907822045033 30.506920294722 33.026453251831 38.902162313792 
 30.47943969231 33.053477247212 38.884925139491 30.467492601994 33.065535903262 38.877587912737 30.463561713224 33.069545303072 38.875194891707 
 30.42841793286 33.105731378659 38.853972159427  30.41188359642 33.122804550421 38.844011823882 30.389121638647 33.146267874474 38.830279539868 
 30.36150807026 33.174514164469 38.813510132137 30.349167743657 33.186974187965 38.805933653466  30.31152741353  33.22413448564 38.782397213987 
30.306680656531 33.228802203997 38.779307350816 30.262673813112 33.270440326769 38.750877250465  30.26045439369 33.272447238017 38.749396437834 
30.217634553219 33.309443571641 38.719956439153 30.201288355664 33.321391038458 38.707619323575 30.172324119936 33.342806079614 38.685882605739 
30.135613406599 33.366195796203  38.65643745548 30.126851788587 33.372733995669 38.649892541812   30.1186920111 33.378239058777 38.643502300694 
30.082783137212 33.402508557591 38.615402506398 30.050447649126 33.422332662969 38.589073815196 30.039985499524 33.429915120277 38.581145128883 
  30.0280223311 33.438237871711 38.571903397911 29.997991221291 33.458725718761 38.548499536035 29.974505269672 33.473258276102 38.529444055278 
29.956711282152 33.486264807496 38.516014676289 29.930341740097 33.503397897913 38.495031731216 29.915791514742 33.512571913593 38.483312493274 
29.906500008406 33.517547273495 38.475382935944 29.874936612792 33.537771410049 38.450123921795 29.843860705137 33.554397664751 38.423596008353 
29.833735604726 33.560677860886  38.41538852655 29.809634513023 33.573617788144 38.394837553025  29.79236286901 33.582576933832 38.379951469798 
29.784622831372 33.586186106524  38.37307560989 29.751130745037 33.603741514782 38.344301553532 29.728389465225 33.614299411641 38.324075944881 
29.709077876931 33.624005452765 38.307274502522 29.674427570245 33.639383145766 38.276099199138 29.665776148303 33.643386826953 38.268398325938 
 29.62952472712 33.657905605927  38.23498997366 29.621311020091 33.661167414544 38.227406400535 29.619282736941  33.66185498478 38.225474190146 
29.576015637109  33.67647631731 38.184233358682 29.561855701314 33.680345930884 38.170274286219 29.530434573906 33.688784101777 38.139223860563 
29.502116642216 33.694416362343 38.110243988287 29.484794919431 33.697790530874 38.092481506204 29.439857590648 33.703312444537 38.044768932619 
29.437855614309 33.703541957075 38.042634990919 29.431647378699 33.703835054784 38.035806136033 29.390815679744 33.705526124948 37.990773120121 
29.377614460462 33.705189871501 37.975767717382 29.345042480596 33.704170064343 37.938648174592 29.309701947821 33.701009853215 37.897336523264 
29.307199637047 33.700689057859 37.894362426038 29.301261328987 33.699636786998 37.887157576972 29.271552551334 33.694222549792 37.851036762374 
29.263778452795 33.692487204359  37.84142392377 29.234935730453 33.684593623406 37.805024449198 29.226806358548 33.682039421607 37.794598872734 
29.196894002772 33.670721518049 37.755268234454 29.191669694375 33.668623788963 37.748337881182 29.157326629132 33.652795829001 37.701750642502 
29.156728193302 33.652503531948 37.700930521937 29.153150497932 33.650549265626 37.695923083794 29.122915329376 33.633840649651 37.653507639969 
29.117982755115 33.630847656721 37.646453078133 29.089762478248 33.612763521945  37.60560741741 29.079074165097 33.605322512135  37.58983850556 
29.057306112447 33.589316611156 37.557293293455 29.041011479905 33.576579590686 37.532549757848 29.025402155237 33.563709943504 37.508509405974 
29.003903594601 33.545234010466 37.475019814263 28.993973120347 33.536258632187 37.459327791025 28.967893723393 33.511918130646 37.417728927981 
28.963115980599 33.507231420288 37.409993128402 28.934486296557 33.478427721164 37.363274556577 28.933178868983 33.477109155511 37.361139454956 
28.932962985129 33.476884582671 37.360783445852 28.904657931784 33.445876075242 37.313316383675 28.899132468986 33.439567276928  37.30392122251 
28.877688408445 33.413850140158 37.266836450927 28.865874316544 33.398935667919 37.246028676049  28.85233217897 33.380987728756 37.221747171276 
28.831597537274 33.351610999434 37.183611747049 28.827992986918 33.346250508588 37.176854164691  28.82128374148 33.335602333383 37.163937503894 
28.804735761269 33.309525020337 37.132173107772 28.797517643184 33.297338001542 37.117907537567 28.782034602726 33.270007647235 37.086707207369 
28.768103749122 33.243899830153 37.057868551485 28.760010021499 33.228074277887 37.040781697603 28.741336659487 33.189361503055 37.000248539869 
28.739323681714 33.185045007289 36.995806739351 28.731856522847 33.168004840945 36.978810711046 28.719484621182  33.14002608076 36.950779287093 
  28.7170342425 33.134330530754 36.945149582776 28.708767383398 33.113445016282 36.925313147604 28.699816901687 33.090860385027 36.903850488389 
28.696518490584 33.081751407686 36.895544158502 28.685008253378  33.05048749874 36.866822250916 28.674119139588 33.018156317607 36.838259449314 
28.671179117893 33.009547413538 36.830608390402 28.666666393378 32.995125238883 36.818254522064 28.658157633006 32.967799321085 36.794894171451 
28.653120933906 32.950075493648 36.780284296033 28.645619018491 32.924398146403  36.75888788556 28.634757639241 32.883517071017 36.726039004835 
28.633674272744 32.879401313331  36.72274326944  28.63303338626 32.876682991619 36.720650427581 28.622340931678 32.833404980176  36.68678105868 
28.614622004608 32.799246973852 36.660858481915 28.611551255163 32.786403964322 36.650922509553 28.607416043213 32.767875953765 36.636919660783 
28.601135487091  32.73896832035 36.615264696698 28.596973731024 32.718691084619 36.600348750679 28.590957392166 32.691417624131 36.579815887065 
28.583303542597  32.65551400992 36.553085004535  28.58095200026 32.644060806606 36.544659060715 
POLYGONS 1 438
437 0 1 2 3 4 5 6 7 8 9 10 11 12 13 14 15 16 17 18 19 20 21 22 23 24 25 26 27 28 29 30 31 32 33 34 35 36 37 38 39 40 41 42 43 44 45 46 47 48 49 50 51 52 53 54 55 56 57 58 59 60 61 62 63 64 65 66 67 68 69 70 71 72 73 74 75 76 77 78 79 80 81 82 83 84 85 86 87 88 89 90 91 92 93 94 95 96 97 98 99 100 101 102 103 104 105 106 107 108 109 110 111 112 113 114 115 116 117 118 119 120 121 122 123 124 125 126 127 128 129 130 131 132 133 134 135 136 137 138 139 140 141 142 143 144 145 146 147 148 149 150 151 152 153 154 155 156 157 158 159 160 161 162 163 164 165 166 167 168 169 170 171 172 173 174 175 176 177 178 179 180 181 182 183 184 185 186 187 188 189 190 191 192 193 194 195 196 197 198 199 200 201 202 203 204 205 206 207 208 209 210 211 212 213 214 215 216 217 218 219 220 221 222 223 224 225 226 227 228 229 230 231 232 233 234 235 236 237 238 239 240 241 242 243 244 245 246 247 248 249 250 251 252 253 254 255 256 257 258 259 260 261 262 263 264 265 266 267 268 269 270 271 272 273 274 275 276 277 278 279 280 281 282 283 284 285 286 287 288 289 290 291 292 293 294 295 296 297 298 299 300 301 302 303 304 305 306 307 308 309 310 311 312 313 314 315 316 317 318 319 320 321 322 323 324 325 326 327 328 329 330 331 332 333 334 335 336 337 338 339 340 341 342 343 344 345 346 347 348 349 350 351 352 353 354 355 356 357 358 359 360 361 362 363 364 365 366 367 368 369 370 371 372 373 374 375 376 377 378 379 380 381 382 383 384 385 386 387 388 389 390 391 392 393 394 395 396 397 398 399 400 401 402 403 404 405 406 407 408 409 410 411 412 413 414 415 416 417 418 419 420 421 422 423 424 425 426 427 428 429 430 431 432 433 434 435 436 

CELL_DATA 1
FIELD FieldData 6
ClosedSection 1 1 int
1 
SectionArea 1 1 double
        13.3446 
SectionLength 1 1 double
        13.3696 
SectionMinSize 1 1 double
        1.61349 
SectionMaxSize 1 1 double
        2.52891 
SectionShapeFactor 1 1 double
       0.638017 
