# vtk DataFile Version 4.2
vtk output
ASCII
DATASET POLYDATA
POINTS 746 double
40.209654586335 41.156592793499 39.204222401683 40.219492229275  41.14833653709 39.211722741142 40.256222600632 41.119326020008 39.241881398762 
40.267729288282 41.109713828565 39.250707430949 40.295456540895 41.087602112954 39.273222057476 40.313592061335 41.072635938969 39.287350399439 
40.328429615923 41.060803070263 39.299398154081 40.347334920197 41.045318201923 39.314264548652 40.368299966834 41.028816362632 39.331546058539 
40.382881738677 41.016821667041 39.342951909898 40.411534144217 40.994297225951 39.366603603162 40.419916017775   40.9873954057 39.373151534822 
 40.45575987691  40.95916601915 39.402678370099 40.457693044294 40.957560471539  39.40417226025 40.469539800437 40.948228199403 39.413928593787 
40.495110127378  40.92808854802 39.434990880504 40.499138091857 40.925042642136 39.438458978593 40.531218402823 40.899409432825 39.464448894857 
40.540467143136 40.892298013749  39.47227249997 40.565720905111 40.871962904574 39.492546072959 40.578380545437 40.862166607942 39.503181147283 
40.600538459231 40.844511384103 39.521191372687 40.611002820095 40.836423343986 39.529993522827 40.646772226211 40.808340528318 39.559563403104 
40.647751271346 40.807609367021  39.56041726572 40.655082514983 40.802041862162 39.566701381146 40.689317407188 40.775921929439 39.595902591289 
40.693390142675 40.772763334143  39.59931566265 40.736742616819  40.74145671629 39.638394453907 40.740065368442 40.738994511614 39.641315215476 
 40.78471212334 40.708191328421 39.683267686504 40.786720532232 40.706750665416 39.685089611213 40.831198167472 40.677107986802 39.728122171226 
40.832370422379 40.676328892093 39.729258914577   40.8747523396  40.64894098433 39.771282342475 40.884441515776 40.643355475454 39.781691726342 
40.914076210956 40.624938628213 39.811946516783 40.942227187438 40.608836116399 39.842339133851 40.951920049657 40.602835870592 39.852262713527 
40.971085505795 40.591651409196 39.872691126496 40.989091883448 40.581297393766 39.892066921211 40.998208671794 40.576338950566 39.902214026421 
41.026257633406 40.560248155475 39.932441148627 41.052730775051 40.545865154945 39.961924174211 41.064184963774 40.539502281261 39.974514773043 
41.090755066254 40.525523791744 40.004648461502 41.102736743135 40.519236005039 40.018255823364 41.108307644968 40.516445083396 40.024739979609 
41.141997403186 40.499358388594  40.06370483813 41.168824004342 40.486308157677 40.095391431699 41.181698638103  40.47995944625 40.110496822772 
41.201070801195 40.470692465103 40.133564768637 41.221602666112 40.460827855318 40.157962779581 41.237460405623 40.453400617725 40.177034039407 
41.261336052926 40.442061296737 40.205561936174 41.290835797418 40.428318724994 40.241127697512 41.300247153429 40.423898053101 40.252431153131 
41.307761415834 40.420438022169  40.26153866323 41.338563847833 40.406117607206 40.298709427972 41.375095565915 40.389443378521 40.343161722534 
41.375722081984 40.389155303596 40.343921567497 41.376239018692 40.388923172225  40.34455511133 41.412333556772 40.372637912116 40.388700284864 
41.443053829687 40.359071318711 40.426621340112 41.448140116401 40.356840408036 40.432917981079 41.454051286273 40.354303484547 40.440302021584 
 41.48331963361 40.341763307835 40.476888074592 41.507342913708 40.331779813808 40.507284943057 41.517573584127 40.327546896596 40.520252099568 
41.529605031854 40.322666236124 40.535617225441 41.550995903891 40.314085101416  40.56304934398 41.567843012631 40.307465147518   40.5848187331 
 41.58336732392 40.301337167493 40.604845828038 41.604208412406 40.293185210708 40.631820529845   41.6149742968 40.289070024329 40.645868653545 
41.622579297319 40.286196523769 40.655831937511 41.645800343427 40.277224181831  40.68601822666 41.671668001064 40.267529356394 40.720001246088 
41.676935917285 40.265488519139 40.726842913332 41.687838767152 40.261440165995 40.741211233314 41.708466202459 40.254057578883 40.768723436668 
 41.71800162826 40.250856611872 40.781692851456  41.73948030324 40.243918690139 40.811229848285 41.766557931726 40.235645100314 40.849027696622 
41.769041597724 40.234981233855 40.852607449892 41.772775778205 40.234071651455 40.858094685589 41.797100372261 40.228817801579 40.894635457777 
41.819812864722 40.225079524215 40.930140164146 41.824086726932 40.224529964902 40.937003821205 41.827394076901 40.224228385789 40.942462127261 
41.850605526838 40.223003957983  40.98182819697 41.874114475092 40.222631724851 41.022728986663 41.878821173995 40.222681349861 41.031065049115 
 41.88564081501 40.223006150234 41.043443541518 41.907016690627 40.224758105301 41.083114507975 41.920075827366 40.226063271926 41.107629401225 
41.936457725111 40.228137999708 41.138901129462 41.964989429916 40.232255070919 41.193963629624 41.966583285874 40.232485348887  41.19703990681 
41.972674347457 40.233574966672 41.209044952623 41.996894362094 40.238105058155 41.257015202055 42.001578417054 40.239034279813 41.266355510922 
42.028279081294 40.244252514524 41.319505023965  42.03462342664 40.245640189329 41.332309281475 42.058347978056 40.251003319671 41.380397018209 
42.065154747052 40.252760825932 41.394453474103 42.086858951129 40.258724586364 41.439701184981 42.093155756944 40.260669641255  41.45308344159 
42.114707237359 40.267770238082 41.499411981529  42.11939511085 40.269569948553 41.509792262621 42.141906684488 40.278685140313 41.560200507421 
42.144239505928 40.279793250261  41.56561829587 42.168721499286 40.291674307146  41.62277474291 42.169216476222 40.291957321827 41.623981139017 
42.177891190665 40.296933142404 41.645142637131 42.194193108685 40.306275900135 41.684900754812 42.195188340414 40.306841104767 41.687321849678 
42.217727741096 40.322282845723 41.745288548591  42.22445823966 40.326995276378  41.76271832633 42.240401463952 40.339231885641 41.805280606229 
42.257078944967 40.352389438283 41.850227289182 42.261914617316 40.356461258932 41.863564448257 42.269882016706  40.36346879934 41.885893689041 
42.282041100616 40.374070670572 41.919860804536 42.289868359213  40.38137149399 41.942291717457 42.300963127719 40.392275167947 41.974745372713 
42.314662507211 40.406873337025 42.016164782949 42.318863060658 40.411257414979 42.028755672314 42.322206995278 40.415122713084 42.039224335727 
42.335548931801 40.431489744344 42.082114762496 42.348858778178 40.449930445383 42.127410170331 42.351145121244 40.452990299106  42.13506291252 
42.353318071107 40.456337186734 42.142856947326 42.365468984846 40.476156128515 42.187750217465 42.375484229224 40.495321070636 42.228111431036 
42.378648670041  40.50108694838 42.240520397405 42.382089382972 40.508551969897 42.255432071255 42.390500788816 40.527955406555 42.293255878209 
42.396108691454 40.543659066207 42.321757890599  42.40113814133 40.556866730215 42.346279932282 42.407490799432  40.57754915101  42.38200137872 
42.410416205839 40.587708430293 42.399204882167 42.411907051397 40.594388850016 42.409756226406 42.418157185631  40.62048096885 42.451718604632 
42.423202847297 40.647325073059 42.492455403452 42.424653309338 40.654498275495 42.503520655191 42.426873844024 40.668352756553 42.523870725913 
42.430050803069 40.689377838659 42.554414150345 42.431327257991 40.700045886887 42.569321723561 42.434600667204 40.724879277991 42.604555169281 
42.437300190313 40.750826353899    42.640101311 42.438453661714 40.760659403797 42.653801476176 42.440802946876 40.785920667732 42.687917644207 
42.441606421734   40.7949266064 42.700020540158 42.441832578604 40.798258158858 42.704372759717 42.444054765562 40.828241112745 42.743869988188 
42.444751901668 40.840491532046 42.759637026959 42.445783032547 40.858608609989  42.78295506056 42.446441549661 40.873097741036 42.801311501129 
42.447409064119 40.895252798403 42.829310679659 42.447836286147 40.908309556928 42.845560162365  42.44878367707 40.935760634878 42.879810247755 
42.449063984454 40.945653414728 42.892045773099 42.450153497827 40.977429639568 42.931679677361 42.450356096839 40.984361246206 42.940263677871 
42.451668581241 41.018175187498 42.982708435431 42.451828084849 41.022886094061  42.98858071152 42.453321618102 41.058019998962 43.032910636696 
42.453431895618 41.061206915789 43.036887391573 42.454933683756 41.097221698406 43.082277422176  42.45499687953 41.099307516743 43.084864392354 
42.456284965733 41.136115704873 43.130820368942  42.45631499676  41.13735290512 43.132341719123 42.457326150184 41.174931587164 43.178725248782 
42.457334675684 41.175428964282 43.179330620727 42.457898851744 41.201907809109 43.211752761971 42.458146071828 41.213534744613 43.225988516687 
42.458151984506 41.213752778078 43.226257717076  42.45885556632 41.251668138103 43.272499985717  42.45888101443 41.252667968219 43.273731521683 
42.459546763035 41.289950615337  43.31915623658 42.459596406339 41.291910340526 43.321569702857 42.460102511021 41.328515636806  43.36590966424 
42.460162705459 41.331799591524 43.369913525967 42.460277368412 41.367578089077 43.412583703928 42.460304799522  41.37277672017 43.418802640114 
42.459849047843  41.40722770804 43.458893958223  42.45973081404 41.415238099212 43.468194245878 42.458558664367 41.447378957173 43.504283623839 
42.458059000168 41.459624901551 43.517940668702 42.456292588006  41.48796475939 43.548473252635 42.454998478183 41.506507117638 43.568206940127 
42.452994529884 41.528571418354 43.590872804238 42.450199254772 41.556338016071 43.618915587998 42.448672828061 41.568835193814 43.631065187737 
42.444555484836 41.600130598382 43.660971634505 42.443650731472 41.607063938599 43.667610312829 42.443229011043 41.610016109972 43.670372861622 
42.437732262205  41.64427098048 43.701366339182 42.434447247583 41.663726109118 43.718682283994 42.431126399101 41.681438883689 43.733867063913 
 42.42532212434  41.71111151375 43.758880679397 42.423133939147 41.721378883722 43.767219768698 42.414787754764 41.759163549242 43.797392067582 
[...]
CELL_DATA 1
FIELD FieldData 6
ClosedSection 1 1 int
1 
SectionArea 1 1 double
        38.4852 
SectionLength 1 1 double
        22.3535 
SectionMinSize 1 1 double
        3.19688 
SectionMaxSize 1 1 double
         3.7889 
SectionShapeFactor 1 1 double
       0.843747 
