# vtk DataFile Version 4.2
vtk output
ASCII
DATASET POLYDATA
POINTS 770 double
45.444093180916 40.610583255565 37.348433332684 45.445772246871 40.607392132479 37.352888903067 45.461453176431 40.577405748206 37.394660727032 
45.466121044956 40.568727017197  37.40687907823 45.478750053457 40.545074784514 37.440086068319 45.489450312907  40.52558635335 37.467739872795 
45.496400701549 40.512647713651 37.485946912195 45.514870744248 40.479057497949 37.533637877809 45.515309268837 40.478256910589 37.534772862796 
45.515501996002 40.477913393665  37.53526439954 45.534319516321 40.442876704752 37.584563953774 45.553979108997 40.406614805049 37.635770371455 
45.555255184865 40.404195042899 37.639151794874 45.556221896924 40.402342199809  37.64173066346 45.576109803795 40.365179102248  37.69395103311 
45.592686553435 40.334137185471 37.737534945173 45.594360333035 40.330825441575 37.742090606141 45.597832710469 40.323981834973 37.751518209308 
  45.6105843615  40.29891790375 37.786079982951 45.617189593904 40.285747711285 37.804146242273  45.62453391038 40.270551668045 37.824716256044 
45.632845048264 40.253311870714 37.848031978921 45.637657507643 40.243498987287 37.861384530774  45.64134072082 40.235994551245 37.871598790908 
45.650812956448 40.215915631275 37.898547923139 45.663126632029 40.189901365578  37.93350442263 45.664402187618 40.187103651344  37.93721541293 
45.666665272298 40.182182793295 37.943762025942 45.678395313956 40.157041190722  37.97737638769 45.684845641778 40.143383149429 37.995714769373 
45.692790027801 40.125801207927 38.018964835912 45.706609377007 40.095468905306 38.059188782078 45.707456839139 40.093512834778 38.061739297048 
45.709330981492 40.089244718481 38.067329319256 45.722210643484 40.060374506454 38.105342516491 45.727401187124 40.049010323803 38.120425622617 
45.737063898621 40.026472139142 38.149711839648 45.746309933761  40.00544152743 38.177267338971 45.751837410494 39.991807361754 38.194667766005 
45.763468528082 39.964293538122  38.23025559577 45.766433751366 39.956598637015  38.23992268056 45.779296334045 39.924775400774 38.280497924399 
45.780879147658 39.920500489708 38.285804366672    45.794229786 39.886111587758 38.329105346745 45.795233509853 39.883294839934  38.33256282143 
45.808904190092 39.847485340556 38.377422526713 45.810031990777 39.844268626304 38.381352615507 45.823574077954 39.808898629395 38.425700689835 
45.825336293565 39.803893884273 38.431822816206 45.838789735948 39.769699291296 38.475056260515  45.84143888843 39.762237893941 38.484205313046 
45.854324326497 39.729915342233 38.525239346373 45.857344295421 39.721240025102 38.535817080761 45.869937288875 39.688483778727 38.576939257654 
45.871518508729 39.683868266614  38.58254157954 45.877535420527 39.667603330089 38.602725973101 45.884798757442 39.648573998536 38.626563308653 
45.887237806632 39.642441996347  38.63434254117 45.897272909036 39.614140100991 38.669032558203 45.903972943953 39.594805095649 38.692577060178 
45.908659345886 39.580280500522 38.709919306533 45.919575908909 39.546418440475 38.750341255814 45.919663998721 39.546140800363  38.75067127354 
45.919882115645 39.545461754312 38.751481075787 45.931009100459 39.511997223298 38.791764954781 45.935632218519 39.498572116562 38.808084074804 
45.942588413885 39.477185554554 38.833674865799 45.951392628726 39.450874814085 38.865402689802 45.954424128457 39.440573857038 38.877411633504 
 45.96607678162 39.402308175448 38.922410984697   45.9661501001 39.402077587558 38.922685230106 45.977433703124 39.360817797296 38.969932730457 
45.978392236756 39.357450785871 38.973825868338 45.987390598504 39.315970851682 39.018994623916 45.987762917855 39.314373824034 39.020759386041 
45.992688407865 39.287041688478 39.049524678642  45.99540434753 39.272215085846 39.065172494004 45.995539925299 39.271281431931 39.066122632628 
46.001810010774 39.231096504244 39.107449113484 46.002187651106 39.227990779726 39.110536781732 46.007084398048 39.190068392325 39.148522491818 
46.007625501129 39.184531704856 39.153895682719 46.011198804975 39.148558337293  39.18886401933  46.01177665893  39.14001455784 39.196899971741 
46.013935959668 39.105821524175 39.228908260565 46.014342147663 39.092930657396 39.240570138862 46.014963367856 39.061555977755 39.268588521891 
46.014596818237 39.041865644329 39.285420780348 46.013709873396  39.01574377688 39.307352856149 46.011478742343 38.986099579545 39.331025340131 
46.010032976533 38.969249489974 39.344304581559 46.004514518613 38.925690638611 39.376862557975 46.004408487463 38.924864070679 39.377479069201 
46.004084957184 38.922937425114 39.378840187289 45.997937994769 38.881821951867 39.408639653152 45.994743666996   38.8641238533 39.420921831371 
45.990271944909 38.839367579003 39.438098819625 45.984230502425 38.810116256997 39.457641608403 45.980985303676 38.794963297572 39.467650438825 
45.972070795397 38.757793091294  39.49125400373  45.96936127997 38.747720766574 39.497358015698 45.957081740061 38.704478233201 39.522920767103 
45.954875698505 38.697711662859  39.52663804102 45.938699737908   38.6498952976  39.55232319106 45.936909735655  38.64521780323 39.554629421335 
45.916309459764 38.593253761946 39.579540180887 45.915145033157 38.590664461247 39.580644369277 45.894500498238  38.54590970122 39.599214929854 
45.889199079834 38.534380238906 39.604015772131   45.8888673267  38.53366882302 39.604307399454 45.860118938493 38.476633992046 39.625549365982 
45.856940098876 38.470351456882 39.627877169679 45.828563765971 38.416759270495 39.646482245286 45.819977982978 38.400466800898 39.652178946041 
45.795780448763 38.356256742586 39.666742923465 45.776389502949 38.321552491568 39.677781667022 45.760345907338 38.294104581268 39.685809596157 
45.743651499125 38.267630996057 39.692339840972 45.720996362062 38.230220970333  39.70249780952 45.694620757419  38.18994861173 39.711458298605 
45.679684574369 38.166615752346 39.716992868626 45.649863371965 38.123849248239 39.724707480054 45.630599979275 38.096416310257 39.729522591253 
45.611379228355 38.070211030075  39.73330790541 45.574770780169  38.02072356545 39.740147288266 45.573642117756  38.01924137298 39.740320126673 
45.571984783586 38.017107767812 39.740536496631 45.535549622676 37.969338601282 39.746047414186 45.506615998117 37.931791006027   39.7500861483 
45.495217067385 37.917352423643 39.751368133825  45.47450332897 37.891490259625 39.753370099862 45.451079173078 37.861940996072 39.755898654018 
45.439196532726 37.847032918353 39.757109975901 45.406320315735 37.807183299288 39.759241144115 45.374596063257 37.769381954665 39.760728243988 
45.369074965521 37.762644247289 39.761125902833 45.352689051804 37.743422348972 39.761629470092 45.333316142262 37.720752871031 39.762175585476 
 45.32895322714  37.71581507676 39.762152261373 45.295707509898 37.677474845831 39.762598008846 45.290605501817  37.67182606517 39.762461134345 
45.257137334191 37.633972340322 39.762260927613 45.252715403714    37.629143202 39.762084061226 45.216940615366 37.589201131962 39.761415454383 
45.213228220699 37.585197542401 39.761222712463 45.176088277073 37.544237754743 39.760086275752 45.172694594765 37.540629001957  39.75986543088 
45.134065104655 37.498884966693 39.757933647188 45.130104207429 37.494764349929 39.757596156102  45.09060638545 37.453186986889 39.754655886179 
45.085134272431 37.447643159269 39.754059551427 45.045589227795 37.407200722245 39.750081166948 45.037814525387 37.399531804089 39.749052529803 
44.999439326035 37.361324377125  39.74428476109 44.988148610108  37.35044926185 39.742562138403  44.95305892701 37.316383006266 39.737442735216 
44.936706751615 37.300906423796 39.734708864336 44.907364986646 37.272987266454  39.72993301755 44.884606791212 37.251764884808 39.725851113512 
  44.8628177361 37.231357447396 39.722020582899 44.833102361138 37.204200869368 39.716207455662 44.819218205223 37.191482244709 39.713517573106 
44.782265092407 37.158631841012  39.70548448444 44.776249355055 37.153261412813 39.704196473294 44.744853281412 37.126007749723 39.696797905071 
44.733721117709  37.11635815617 39.694162539364 44.731512808062 37.114492064299 39.693597733352 44.691560916266 37.080471157788 39.683606801226 
44.680383768808 37.071183914477 39.680610273882 44.649786848434 37.045460702598 39.672669263821 44.628599925387 37.028039516225  39.66682907663 
44.608367240816 37.011121361548 39.661497862211 44.576180571342 36.984747659248 39.652545110037 44.567185664622 36.977233239179 39.650168938196 
 44.53682372944 36.952370108092 39.641710299325 44.526100545008 36.943627294827 39.638689430188 44.522788151257  36.94098022564 39.637709482535 
44.485032912702 36.910254469981 39.627023705972 44.468343075365 36.896963281768 39.622045665356 44.443785007827 36.877159077715   39.6149365367 
44.412581783475  36.85267586006 39.605310051949 44.402299827796 36.844545085056 39.602193140523 44.375478380811 36.824003200006 39.593478983026 
44.360571991897  36.81262640195 39.588601352297 44.354658865085 36.808263881107 39.586535058091  44.31863188007 36.781574708172 39.574041426438 
44.293564310909  36.76367635406 39.564761498341 44.276642799575 36.751561575895 39.558525810702 44.245144948829 36.729675225812 39.546338564066 
44.234570185955 36.722371199978 39.542208629036   44.2282571347 36.718111440837 39.539655154616 44.192801564963 36.694096891717 39.525393500119 
44.155593076211 36.669298923995 39.510074042573 44.149850168589 36.665450748907 39.507727704171 44.143718512208 36.661371205088  39.50519710397 
44.105270774301 36.636154302272  39.48901199257 44.065513804661 36.610478638282 39.471926462693 44.059131269131 36.606329928579 39.469206951925 
44.050458256774 36.600779531347 39.465435392884 44.011124593215 36.575936609717 39.448043258068 43.988602264996 36.561918458674 39.437903947453 
43.962971663132 36.545753590602 39.426550556032 43.923733986576 36.521537213378 39.408706618671 43.916814652036 36.517238307189  39.40558482635 
[...]
CELL_DATA 1
FIELD FieldData 6
ClosedSection 1 1 int
1 
SectionArea 1 1 double
        41.6186 
SectionLength 1 1 double
        23.3057 
SectionMinSize 1 1 double
        3.18889 
SectionMaxSize 1 1 double
        4.13494 
SectionShapeFactor 1 1 double
       0.771206 
