# vtk DataFile Version 4.2
vtk output
ASCII
DATASET POLYDATA
POINTS 294 double
37.203000232833 40.236564382751 12.931182127841  37.20241820182 40.236245112499  12.93183726681 37.202003798162 40.235990311425 12.932345962322 
37.165980317776 40.216249254867  12.97286440368 37.142543456105 40.201151044899 13.002691096023 37.132171277385 40.195168308506 13.014816640355 
37.116004907017 40.183207035117 13.037767970953 37.099617400166 40.173949865173 13.056625617571  37.09160182559 40.167991353407 13.068048176944 
37.069562894008 40.152762435735 13.097680842501 37.054054647308 40.138191608572    13.124457085 37.045738192831 40.130798957722 13.138168889201 
37.029090714075 40.113331228273 13.169719454614 37.027072129782 40.111428002775   13.1732149363 37.007347025954 40.095934741808 13.202600224902 
 36.99535873915 40.084619864242   13.2233777283 36.979635692793 40.073285716977  13.24523993665 36.953647048112 40.048198706856 13.291140118018 
36.950366718875 40.045993399676 13.295456342664 36.945932719404 40.041756848785  13.30322046814 36.914023055512 40.019583839054 13.346314602542 
36.894073364929 39.996997121837  13.38666584678 36.883833323975 39.989385513402 13.401257607228  36.87737392564 39.982346862819  13.41390069226 
36.851271762438 39.959584299817  13.45626031168 36.832734078455 39.936220767638 13.497406607147 36.825588369386 39.928459319971 13.511354503827 
36.810085174122  39.90167914533 13.556894856606 36.805486458003  39.89575471513 13.567299754076 36.804628269075 39.893386049967 13.571182790419 
36.791437405986 39.860078183733  13.62610283723 36.790626229453 39.852108184977 13.638581736677 36.786050355532 39.819444653432 13.690077676742 
 36.78695766484 39.810991630304 13.702813494928 36.791237172777 39.770965271357 13.763124273606 36.792086148481 39.768332361259 13.766931167108 
36.795174993369 39.760096199294 13.778717379327 36.804929364585 39.723069661966 13.832870813046 36.806135669918 39.716094062729 13.843251390677 
36.826293730104 39.679281027307 13.894137583114  36.83017184731  39.67189537184  13.90439360957 36.831377663777 39.670489859785  13.90621320612 
36.854081208425 39.631786897816 13.959285068323 36.862290769164 39.622604855854 13.971078453098 36.880002730451 39.594885636758 14.008678655826 
36.895009367516 39.578329599797 14.029885524951 36.907243024695 39.559180828687 14.055860758017 36.928643281752 39.534334148572  14.08800396084 
36.935335583107 39.523234377556 14.103173492261 36.961653566431  39.49057885753 14.145929453438 36.964104294075 39.486392195277  14.15167193203 
36.985611586988  39.45904894086 14.187622084427 36.994055023906 39.448134501862 14.202012059687 36.995554682374 39.446667622301 14.203842965141 
37.026866083347 39.408885479127 14.253067784791 37.032472526974  39.40392348859 14.259110423213 37.066414321025 39.369818328526 14.301940690141 
37.072400694048 39.364970841833 14.307700006401 37.112302403168 39.330138615635 14.349964055223 37.114849301729 39.328211045341 14.352207183231 
 37.15843836012 39.292614533749  14.39460423017  37.16066957867 39.291031826104 14.396406491917 37.201562067744 39.259669561301 14.433057375199 
37.217934994044 39.248717230621 14.445265469841 37.243407784261 39.230378190837 14.466256041449 37.281653006093 39.205769578471 14.493274553922 
37.287069182103 39.202263599275 14.497133081839 37.291444661927 39.199673513856 14.499877900002 37.332188640671 39.174452649145 14.527131521796 
37.366265175121 39.155209876358 14.547080514318 37.378677386542 39.147925380218 14.554770137558 37.412855079532 39.130157553976 14.572423587213 
37.427112819132 39.122609839845 14.579996400842  37.43097951856 39.120721169275 14.581806890523  37.48389411729 39.094519974475 14.607129001718 
37.485320443408 39.093829312505 14.607787592085 37.492351061139 39.090501622285 14.610916005541 37.538523217058 39.068286219896 14.632016801775 
37.548609756412 39.063609644078 14.636355114251 37.597585929238 39.041422861459 14.656619773987 37.609492990711 39.036101773982 14.661434382378 
37.662460362613 39.012743145717 14.682372613617 37.666364830568 39.011013004787 14.683928776433 37.684017696509 39.003497049376 14.690493637756 
37.720913389631 38.987520240637 14.704626478919 37.732501874732 38.982778722139 14.708640300074 37.773020253658 38.965814278723 14.723267690744 
37.832875747628 38.942885086431 14.741599958897 37.836797975017 38.941333174483 14.742877169994 37.839229359511 38.940476045119 14.743507683722 
37.914028976751 38.914950397062 14.761608867824 37.917281269421 38.913917713954  14.76227729379 37.988169995277 38.892813257702 14.774688035169 
37.989413990838 38.892466862279 14.774869003604  38.00417210723 38.888728045039 14.776446255496 38.056713764878 38.875246276758 14.782324205142 
38.061366104306 38.874173004692 14.782659495536 38.120526146406 38.861059827814 14.786101201245 38.136328983199 38.857901088506 14.786491745664 
38.181964714232 38.849051499671 14.787201080611  38.21958547462  38.84296330559 14.785930472074 38.242280543506 38.839316807909 14.785123602756 
38.278761835741 38.835071128822 14.781342988654 38.304828417264 38.831605790336   14.7793052123  38.32124837616 38.830132325197 14.776931182027 
38.366706819011 38.825776869114 14.770783204274 38.425175367598 38.822882433389 14.758714247404 38.425314647268 38.822875729503 14.758685203965 
38.425576192982 38.822870354257 14.758619577677 38.484256781152  38.82070054144 14.745376986816 38.509767689555 38.820129669102 14.739047450822 
38.541793082587 38.820000873538 14.730198077467 38.587826760563 38.820773738507 14.716005460027 38.598228171455 38.821128007693 14.712522505651 
38.622991028739 38.822544064885 14.703350424446 38.654285058867 38.823745950895 14.692662432139 38.666043290576  38.82439320719 14.688345853592 
38.708696086451  38.82756204736 14.671425783033 38.744596311401 38.830783053882 14.656333167991 38.761105429033 38.832644943348 14.648807572672 
38.785126351425 38.836297696142 14.636407332639 38.809550478087 38.839014725606 14.625331374585 38.826882031666 38.841910787104 14.615983934148 
38.854104918039 38.846567148131 14.601136596705 38.878307393412 38.852025337648 14.585910144799 38.897029755193 38.855101439051 14.575893076316 
38.934451242601 38.862705633088 14.553633820476 38.941488556373  38.86405624919 14.549569873481 38.944248480873 38.864725609645 14.547761386926 
38.990959936109 38.872741277836 14.522245241837   39.0137228476 38.877811258282 14.508022143785 39.046099963039 38.882715959704  14.49133701698 
39.099611511801 38.894427458416  14.45821939034 39.109469525439 38.895740912766  14.45341569879 39.119016787519 38.897622250965  14.44782696928 
39.173320175622 38.909917898909 14.413587817787 39.203572091106 38.917331510431  14.39364692272 39.228207068898 38.924225142335 14.376092038832 
39.271977695532 38.937984400828 14.342578901946 39.278599152179 38.940452269689  14.33691524015 39.303807835472 38.950135194512 14.314911190928 
39.326194667898 38.958194343477 14.296200041279 39.332416786122 38.960401634865 14.291049697207 39.373480191116 38.977676073792 14.252898597453 
39.390837346107 38.984993568308  14.23674826514 39.419867851286 38.999681015021  14.20597267662 39.443904680432 39.012217463085 14.179913870383 
39.465445532171 39.025845554332 14.152882354904 39.490460217941  39.04109305703 14.122380459442 39.510827935473 39.056445553682 14.093029981437 
39.533281522559 39.071479793578 14.063579389757 39.555904223163 39.088574342439 14.030914366573  39.57703429059 39.102505439909 14.003533184803 
39.602397371383 39.119756391592 13.969853602655 39.626566815159 39.134230101164 13.940779797654 39.650402938484 39.151123710669 13.908080816642 
39.677877956782 39.168916345836 13.872972044527   39.6950497526 39.185904195783  13.84201092275 39.718950675687 39.214122472352 13.791887835304 
39.724442291484 39.222444971206 13.777544902922  39.74577488541 39.259461306147 13.714624930822 39.746010340956 39.259953260012 13.713802289648 
39.747773739496 39.264084356385 13.706954703568 39.763163428926  39.29693018051  13.65212362762 39.765004518432 39.301541438815 13.644516093609 
39.776845136232  39.33415431223 13.591045688561  39.77924116656 39.341725200336 13.578732485748 39.787483875672 39.371943268254 13.529959278438 
39.789357411868 39.380562892196 13.516181795518 39.793799729073 39.411069267976 13.468039093698 39.794424496484 39.418478892835 13.456474139873 
39.794103585611 39.453466655686 13.402789265609 39.793919835173 39.456263289325 13.398542802725 39.791792998891 39.469601527762 13.378643022849 
39.789224652898 39.495043438668 13.340264854786 39.788912063057 39.498752039808 13.334653112772 39.785058830261 39.512437289886 13.314707697968 
39.779493732924 39.535233444752 13.281242604023 39.776225314832   39.5431046925 13.270067988395 39.769479737981 39.567705739623 13.234162300233 
39.759854688756 39.589950353546 13.202691870548 39.756977335617 39.599287933297 13.189153052466 39.746468454064  39.62222155644 13.156873315517 
39.742835772498 39.630373468817 13.145370229843 39.741080609864 39.633305103258 13.141360204875 39.728302315543 39.661329051997 13.101897853441 
39.721165957577 39.673475516316 13.085245022266 39.712490374326  39.69283840034 13.057935528444 39.701502129626 39.712363676932 13.031029778437 
39.695787507136 39.724965159188  13.01327594605 39.680967112715 39.751358487921 12.976896730119 39.678028449481 39.757722366347  12.96794575542 
39.661160260813 39.788440578365 12.925497787124 39.659870847974 39.790819221318 12.922206123078 39.659557921802 39.791304839587 12.921548140107 
39.641170116318 39.823963625805  12.87654684494  39.63577770032  39.83198734233 12.865737927437 39.619979273877 39.857540522144 12.830926303405 
39.608352258603 39.873882508527 12.809093666352 39.596535453846  39.89163771942 12.785142546274  39.57669598005 39.918152994117 12.749993816095 
39.570023172463 39.927463827338 12.737568341318 39.541057906282 39.963409904253 12.690502726437 39.539891991803 39.964878971819 12.688574173758 
39.504936603441 40.003051661221  12.63977853611 39.502175705631 40.005877552617 12.636215161304 39.466640539393 40.039969809579 12.593854861616 
39.450891256315 40.054096095883 12.576592274651 39.426217077835  40.07516032488 12.551187526791 39.389279888374 40.104313006367  12.51681534006 
39.383832199678 40.108479748407 12.511950134572 39.374612001527 40.115153263204 12.504297818846  39.33881767777 40.141209411903 12.474362079607 
39.313716666333 40.158335224821 12.455131185546 39.291911745102 40.173194117973 12.438453342952 39.267073354192  40.18943284536 12.420511691081 
39.244426218721 40.204085061703 12.404389436482 39.196197797664 40.234002355716 12.372031882676 39.191328448079 40.236906545252 12.368943813012 
39.134537258999 40.270487695684 12.333374004557 39.131108451803  40.27241859577 12.331374902212 39.071900263062   40.3058433447 12.296728294114 
39.068774440325 40.307487324046 12.295084588959 39.009707383249 40.338503858782  12.26409949038 39.006521915707 40.340049241092 12.262624176964 
38.947069988433 40.368604727615 12.235530390886 38.942878756307 40.370434387908 12.233902280959 38.884853928175 40.395384428658 12.211946834725 
38.877693479841 40.398172122612 12.209685063147 38.823979247568 40.418769776244 12.193201389664 38.810775909498 40.423364985932 12.189868646235 
38.765649227207 40.438832257355 12.178844248922 38.742873474248 40.445784307121 12.174593340529 38.709933009031 40.455591583314 12.168825583628 
38.667436224286 40.466548317391 12.163990838459 38.655335874553 40.469608614489 12.162705627215 38.637579243839 40.473287459684 12.162067646147 
38.599536238114 40.481535914807 12.160137260476 38.569029444817 40.486889765989 12.160526809833 38.540213736167 40.491648703096  12.16135299127 
38.505621614608  40.49599810892 12.164440479399 38.478554242686 40.499761309585 12.166303175357 38.453568802391  40.50227267275 12.169501766161 
38.416077966286   40.5056082921  12.17496632602  38.37792365622 40.507649535654 12.182607751752 38.354097705067  40.50925005905 12.186878724804 
38.332086832135 40.509906893875 12.192087360983 38.293814322032 40.510719302316 12.201650875249 38.254826749393 40.510332970068  12.21325884005 
38.236229698338 40.510366661452 12.218460814644 38.219307450178 40.509914483896 12.223936420671 38.181402135911 40.508731266862 12.236463439126 
38.146403973672 40.506819258187 12.249289311993 38.130775032507 40.506074376994 12.254849432469 38.116440588695 40.505046630155 12.260478610305 
38.084031260292 40.502718012584 12.273213445022 38.052877692269 40.499744208063 12.286585161512 38.039059436319 40.498458258534 12.292465366435 
38.018236337048 40.496100270024 12.301972177499  37.99322338093 40.493351331279 12.313263526711 37.978869005305 40.491519114998 12.320134789777 
37.945849516057 40.487077601183 12.336289479679 37.912750798441 40.481888042278 12.353616283209 37.898611613886 40.479740743596 12.360911029469 
37.858055056415 40.472485780303 12.383519196809 37.852230685992 40.471446021335 12.386762699825 37.850784148069 40.471152472679 12.387622532605 
 37.80165430762 40.461808437216 12.415863558811 37.797762713125 40.460902997922 12.418354596393 37.747683994724 40.450408528432   12.4486318807 
37.742558393938 40.449053623516 12.452162351281 37.688363185401 40.437242277033 12.485626579287 37.681303340441 40.435250637529 12.490682132359 
37.625771490105 40.423088684767 12.525062843446 37.616756604703 40.420413053931 12.531721986784 37.562532474718 40.406853270544 12.567881699863 
37.556246851544 40.404778228617 12.572846719459 37.503101615775  40.38992991145 12.610682091834 37.500414496488 40.389207416342 12.612551677523 
37.499990833865 40.389108244231 12.612823789949 37.449843785754 40.372668700904 12.652257844355 37.446584057458 40.371630925303 12.654773775066 
37.420210068926 40.360176070898 12.679830451126 37.406050079453 40.354252993489 12.692934375734 37.404399160683 40.353437593024 12.694654023509 
37.368432897295 40.338383564717 12.727952426559 37.348846560046 40.327518072781 12.750185719005 37.333987778496 40.320904227916 12.764548752363 
37.319968634393 40.311640348456 12.782747637356 37.300503157973 40.301002945487 12.804596217577 37.280906853425  40.28718068181 12.831376828362 
37.267803570074 40.279422389247 12.847002919495  37.25757871776 40.272330012504 12.860792339739 37.234366836441 40.258420600055 12.888728314616 

POLYGONS 1 295
294 0 1 2 3 4 5 6 7 8 9 10 11 12 13 14 15 16 17 18 19 20 21 22 23 24 25 26 27 28 29 30 31 32 33 34 35 36 37 38 39 40 41 42 43 44 45 46 47 48 49 50 51 52 53 54 55 56 57 58 59 60 61 62 63 64 65 66 67 68 69 70 71 72 73 74 75 76 77 78 79 80 81 82 83 84 85 86 87 88 89 90 91 92 93 94 95 96 97 98 99 100 101 102 103 104 105 106 107 108 109 110 111 112 113 114 115 116 117 118 119 120 121 122 123 124 125 126 127 128 129 130 131 132 133 134 135 136 137 138 139 140 141 142 143 144 145 146 147 148 149 150 151 152 153 154 155 156 157 158 159 160 161 162 163 164 165 166 167 168 169 170 171 172 173 174 175 176 177 178 179 180 181 182 183 184 185 186 187 188 189 190 191 192 193 194 195 196 197 198 199 200 201 202 203 204 205 206 207 208 209 210 211 212 213 214 215 216 217 218 219 220 221 222 223 224 225 226 227 228 229 230 231 232 233 234 235 236 237 238 239 240 241 242 243 244 245 246 247 248 249 250 251 252 253 254 255 256 257 258 259 260 261 262 263 264 265 266 267 268 269 270 271 272 273 274 275 276 277 278 279 280 281 282 283 284 285 286 287 288 289 290 291 292 293 

CELL_DATA 1
FIELD FieldData 6
ClosedSection 1 1 int
1 
SectionArea 1 1 double
        6.96818 
SectionLength 1 1 double
        9.44752 
SectionMinSize 1 1 double
         1.3901 
SectionMaxSize 1 1 double
        1.59806 
SectionShapeFactor 1 1 double
       0.869871 
