# vtk DataFile Version 4.2
vtk output
ASCII
DATASET POLYDATA
POINTS 715 double
39.387223314279 41.844555932779 48.236974135933 39.390999751937 41.842668667193 48.236885444708  39.39207284979 41.842121200661 48.236845918941 
39.439635721131 41.818242552829 48.235589062909 39.453825694678 41.811020979314 48.235089162153 39.488343144088 41.793369917611 48.233765076777 
39.514255465026 41.780039363274 48.232668838199 39.537634607419 41.768035214356 48.231709488286 39.573984909978 41.749398860145 48.230253602348 
39.587932279932 41.742309691353 48.229773691729  39.63403720844 41.719324609823 48.228762263477  39.63926322333 41.716733429866 48.228665783338 
39.670543206506 41.701933155834 48.228996067669 39.691809222469  41.69216499452 48.229596940805 39.695524278264  41.69053770792 48.229803248174 
39.745140976867  41.66918014664 48.233039683684 39.759008286994 41.663563258288 48.234395262607 39.798459433465 41.647683490957 48.238379431762 
 39.82443395666 41.637843219974 48.241789828744 39.851454494305 41.627584577592 48.245309277594 39.891590382113 41.613315425776 48.251777379186 
39.903966807068 41.608886969075 48.253735573596 39.942809273965 41.596280397308 48.261534997508 39.956332303831  41.59214959941 48.264580907416 
39.960725672674 41.590970901717 48.265779545791 40.008543089946 41.578084930231 48.278752515103 40.030371966943 41.572783700635 48.285418894722 
40.060896949044 41.565114160665 48.294412720998 40.099672475643 41.555985476109 48.306623320603 40.113672493252 41.552471452953 48.310752798732 
40.165560737522 41.539620638176 48.326279615034 40.167054193461 41.539270383422 48.326751627508 40.167472724332 41.539166794049 48.326876950586 
40.221075356336 41.524878696894 48.341620313851 40.233327022236 41.521523689175 48.344875861224 40.275756735486 41.508883972766 48.354843662598 
 40.29673954011 41.502593845925 48.359722612735 40.330761422005 41.491514743617 48.366506607769 40.357881718235 41.482778893384 48.372037033396 
 40.38565280363 41.473081942403 48.376738126392 40.416791595093 41.462527656629 48.382417157187 40.440271820324  41.45391848541 48.385866393444 
40.473406374587 41.442181385149  48.39126115454  40.49465414669 41.434080493035 48.393985241052 40.528008712669 41.421887706155 48.398932219536 
40.550827073922 41.412909583627  48.40150121526 40.581256167733 41.401517971287 48.405670906431 40.612306334403 41.388849040784 48.408588125763 
40.636740504047 41.379251092668 48.411359431776 40.678178752425 41.361624327348 48.414331719403 40.693185996364 41.355404812176 48.415618346539 
40.738293265788 41.334620688038 48.416809754576 40.753347206817 41.327516756665 48.416992921304 40.790242609453   41.3095747417 48.416761879983 
 40.82859805346  41.29013336869 48.415511162719 40.840965252637 41.283796041843 48.415019914014 40.861430604109 41.272539168303 48.413221473586 
40.891758600713 41.256429881296 48.411289238015 40.910311279583 41.245723900935 48.409017282685 40.942851204441 41.226742168016 48.404770914174 
40.988042909659 41.197880646342 48.395673583455 40.993532196734 41.194305509135 48.394479683932 41.006352404305 41.185066388003 48.390552712914 
41.043184216918 41.159098130787  48.38000719453 41.056495403964 41.148540180598 48.374694432776 41.091215557867 41.120356745868 48.360011609727 
41.115436861295 41.098661855857 48.347165084154 41.137763808881 41.078133681648  48.33464471538 41.167275052392 41.048645050017 48.315080727904 
41.183162633553 41.032406316007 48.304083186306 41.214154182687 40.998353421023 48.279588285017 41.227623392226 40.983263299014 48.268570774104 
41.256050682668 40.949153126073 48.242422199665 41.271315492441 40.930019383871 48.227334623402  41.29191332544 40.902876583204 48.205280486176 
 41.31497828664 40.870575886832 48.178143636156 41.322697570979 40.859531547918 48.168761920464 41.336957697212 40.838147116913 48.150173803192 
41.350834024761 40.817967804874 48.132891958918 41.358568446846 40.806184770139 48.122573885774 41.376875834947 40.778200104875 48.098030389303 
41.400573368375 40.740787954055 48.064739649545 41.401605296557 40.739214472394 48.063361234778 41.402390591671 40.737979440977 48.062264108616 
41.426342538868 40.700380780561 48.028891391624 41.447435981162 40.666141963489 47.998058295985 41.450256724625 40.661587071423 47.993965487384 
41.453340452869 40.656414439635 47.989243918121 41.473951887642 40.622782898412 47.958891204089 41.491690856352  40.59254253762 47.931109625286 
41.496816043588 40.583887766764 47.923188327246 41.501964645461 40.574775328247 47.914695548229 41.519233545301 40.544909893571 47.887104252014 
41.537186173749 40.512630161483 47.856843524738 41.542091764443 40.503902630418 47.848693741534 41.546387481457 40.496067729672 47.841310850433 
41.565986081981 40.461208623947 47.808762387514 41.593224446613 40.411874477339 47.762391177093 41.594119449656 40.410307666614 47.760936915964 
41.594727804867 40.409251501378 47.759959728771  41.62498637687 40.355469101592   47.7097551591 41.629070409365 40.348322011587 47.703122350579 
41.651738089575 40.307711246125 47.665102012362  41.65957117018 40.293718081865 47.652015309199 41.675728353678 40.264035589156 47.623973069789 
41.688348501899 40.240567567266 47.601706802012 41.697819357026 40.222494690929 47.584406560724 41.716030109356 40.186214595219 47.549183603398 
41.718685127527 40.180741625263 47.543813325008 41.727574875542  40.16147128244 47.524621938849 41.738222106703 40.138802005379 47.502162330187 
41.741068860785 40.132425706491 47.495753766103 41.756297748047 40.096659165389  47.45935055237 41.762969779774  40.08011640438 47.442284275335 
41.772904185057 40.054066825946  47.41505785383 41.781894413616 40.029041045242 47.388560216435 41.787857639412 40.011381827266 47.369627803423 
41.798197450745 39.978828029596 47.334324456979 41.801211318436 39.968645937691  47.32314666498 41.812210513552 39.929058851587  47.27924559893 
41.812999632233 39.925969723726 47.275777193844 41.817330952601 39.907928311065 47.255349752223 41.823292827219 39.883483282515 47.227729234525 
41.824244694937 39.879347031273 47.223020591927 41.832232740924 39.841363689565 47.179316895167 41.834567728337 39.829457402296 47.165513376669 
41.839814072025 39.799889544695 47.130893575238 41.843184019369 39.779158707785 47.106430610644 41.846070653879 39.759230868884 47.082697788933 
41.850043293679 39.728570951478 47.045894940064 41.851073963135  39.71960809745 47.035055790908  41.85390266417 39.690677594739 46.999761952252 
41.854881200488 39.681112725301 46.988119966611 41.855119885937 39.678275378885  46.98463466458 41.857626680078 39.643545672052 46.941718228485 
41.858412022798 39.628807829695 46.923334679357 41.859336656113 39.607137100231  46.89616141361 41.859991911583 39.580584248667 46.862571982773 
41.860126414575 39.571492420357  46.85101541446 41.860081340092 39.546974699447 46.819599769723 41.860114979901 39.536397060094 46.806078887505 
41.860056171738 39.532382322068 46.800902930872 41.859364596756 39.501604743386 46.761074908543 41.858534294754 39.481227658558   46.7344762198 
41.857803093409  39.46592757615 46.714438242812 41.855907589219  39.43868082355 46.678388446126  41.85531106662 39.429085114914 46.665736275514 
41.854897013249 39.424373511479 46.659449247249 41.851490023405 39.390311127105 46.613742476903 41.849163457077 39.371700605487 46.588483219097 
41.846223809311 39.350491514149  46.55951940242 41.841543808546 39.321591723287   46.5196372901 41.839903346781 39.312238136671 46.506651710149 
41.833849178569 39.282155393029 46.464408272766 41.832656751038 39.276048912104 46.455855796701 41.832243539137 39.274214516689 46.453252721499 
41.824505895558 39.241478956464 46.406575597096   41.8214113957 39.229794558095 46.389709965905  41.81578116339 39.209539825401 46.360309730516 
41.809658016045 39.189681741607 46.331113507445 41.806560701408 39.180046603079 46.316869627297 41.797981723064 39.154947583681 46.279450377212 
41.796197694349 39.150051950702 46.272083440366 41.786103165736 39.123439481043 46.231792624754 41.783692895085 39.117634505597 46.222875586225 
41.772149339635 39.090745206847 46.181337339787 41.768701992746 39.083394402173 46.169802165976 41.755852084313 39.056440050262 46.127375536157 
41.751421489894 39.047922896323 46.113741216112 41.737829105882 39.021986342691 46.072159997673 41.732242836693 39.012252491972 46.056255809522 
41.718415215464 38.988218642825 46.016965479008 41.711245998695 38.976928541935 45.998093395628 41.697739206473 38.955766205444 45.962676934305 
41.688230487666 38.942172964101 45.939414515916 41.676406107506 38.925250867941 45.910463324259 41.663666201431 38.908497620286 45.881164058392 
41.654477462872 38.896441440318 45.860066606382 41.638250373512  38.87655004381 45.824600705595 41.631796162239 38.868706294826 45.810581336995 
41.612288803365 38.846291148369 45.769862882122 41.608359831044 38.841840671278 45.761743916337 41.585690159582 38.817366566008 45.716440634796 
 41.58402095942 38.815599940223 45.713150257093 41.564087742439  38.79533215299  45.67491842082 41.558845048225 38.789991802787 45.664850586323 
41.558386085299 38.789541001139 45.663990607389 41.532944946381  38.76500158902 45.616895671854 41.530347391434  38.76257115245 45.612183333642 
41.506625512541 38.740769866854 45.569653353867 41.501695790238 38.736371144709 45.560983886018 41.480102678407 38.717427770536 45.523424590004 
41.472594042174 38.711010750143  45.51058189652 41.454459570058 38.695753832868 45.479873594308 41.443500591768 38.686800389802 45.461657307754 
41.430298579324 38.676202103009 45.439952898036 41.408345151615  38.65900178015  45.40440301452 41.406524892771 38.657585977934 45.401468668113 
41.404584331881 38.656126881219  45.39840475379 41.380354163975 38.637903754556 45.360142316765 41.356431267791 38.620509561713 45.323130460932 
41.349858445558 38.615781535779 45.313026776862 41.339842108265 38.608797592082  45.29791281276 41.317104937306  38.59292244733 45.263576418634 
[...]
CELL_DATA 1
FIELD FieldData 6
ClosedSection 1 1 int
1 
SectionArea 1 1 double
        35.4273 
SectionLength 1 1 double
        21.5312 
SectionMinSize 1 1 double
        2.97459 
SectionMaxSize 1 1 double
        3.71502 
SectionShapeFactor 1 1 double
       0.800693 
