# vtk DataFile Version 4.2
vtk output
ASCII
DATASET POLYDATA
POINTS 771 double
36.494147255287 47.437603866231 43.594341755575 36.504595119841 47.439658059762 43.606777236098 36.537213556407 47.447474561227 43.650642946474 
36.545462136495 47.449246374851 43.660999798821 36.578158498412  47.45748680355 43.706426366585 36.586490464147 47.459312472867 43.717017063811 
36.618968307075 47.467238945539 43.761209875627 36.628660533599 47.469289484471 43.773266636251 36.660080072983 47.476411918868 43.814058543103 
 36.67306838693 47.478967655053 43.829525156709 36.701007357609 47.484926854436 43.864453648788 36.720250728774  47.48845269263 43.886432096217 
36.741167586865 47.492755347286  43.91201127654  36.77007491468 47.497879066566 43.944406423178  36.78064515285 47.500089917651  43.95746397508 
36.815509741374 47.506449954538 43.997183380569 36.819451360355 47.507202482522 44.001794202209 36.820793296471 47.507428679135 44.003256167714 
36.856991461031 47.514617250646 44.046597673675 36.870416541356 47.516944599404 44.061455013273 36.895229850872 47.522001560873 44.091629553768 
36.918125501162 47.526071086428 44.117328478702 36.934304187154 47.529433989211 44.137238764032 36.964742126493 47.534910465042 44.171641885667 
36.975040207096 47.537033063163 44.184250673791 37.011348707261 47.543478193626 44.224974403735 37.017809389934 47.544769262309 44.232738944433 
37.058245229004 47.551968430106  44.27816877315 37.061742611092 47.552668293718 44.282375445025 37.105882816488 47.560795190191 44.332930799024 
37.106953218679 47.561015731088 44.334241071537 37.138497986222 47.567173336591 44.371626968722 37.150774528001 47.569588165293  44.38624294052 
37.151127586779 47.569655156882 44.386654454137 37.153602732445 47.570158380579 44.389660032223 37.188804904393 47.577603552201 44.433441617322 
37.196310801648 47.579245596789 44.442972892877 37.221725548697 47.585081528842 44.476237232334 37.250411662163 47.591299616975 44.512457381679 
37.255307611641 47.592521680258   44.5192169469 37.261126971771 47.593718821982 44.526333729783 37.289539089959 47.599798461745 44.561923875875 
37.316965411928 47.604731642319  44.59291789061 37.325774006154 47.606571967433 44.603791845642 37.335787176976 47.608381611132 44.615138355686 
37.363111437897 47.613375657837  44.64630168166 37.390895837286  47.61793125047 44.676112279189 37.401785090934 47.620058374461  44.68902334702 
37.412304474239 47.621966663915  44.70096920107 37.440547974316 47.626955590322 44.732558871719 37.474999154912 47.632762576557 44.770091172319 
37.478302791432 47.633443183667 44.774134919229 37.481064393451 47.634019188424 44.777540589047 37.513137046443 47.640305577727 44.815644600901 
37.539122112732 47.645370345797 44.846414103794 37.541013790432 47.645722390654 44.848594210946 37.573522563198 47.652655397144 44.889232497357 
 37.57373389125 47.652697128476 44.889484680283 37.574963997376 47.652976228723  44.89108262169 37.609817576603 47.661234418562 44.937616698796 
37.615696314357 47.662902921132 44.946455792728 37.647996975216 47.670612878621 44.989784949606  37.66560432382 47.674913096456 45.013754184048 
37.686561077979 47.679588819816 45.040693089675 37.722398600808 47.687055655333 45.084859904715 37.724800351341 47.687575853117 45.087890960444 
 37.72924537595 47.688420655845 45.093076877271 37.759587165447  47.69548973911 45.133155663738 37.780194984598 47.699618899031 45.157961965777 
37.792923115498 47.701901608437 45.172321723109 37.810005161515 47.704325168916 45.189294043114 37.822492258698 47.706514506088 45.203201701493 
37.854920556922 47.710193228175 45.232108521504 37.857600561426 47.710591499355 45.234836122604 37.876902845882 47.711750596073 45.248339452681 
37.902626685583 47.713405580426 45.266731334944 37.907433856656 47.713296539403 45.268665335981 37.951907527932 47.714021028594 45.292785431763 
37.971944106734 47.713002512814 45.298819937898 37.999868804579  47.71209040889 45.309053168808 38.029527091018 47.710074790389 45.316160246138 
38.049693691331  47.70883468889 45.321461508796 38.098464729531 47.704133143523 45.328165180332 38.107643045141 47.703333757185 45.329733619938 
38.165180229849 47.696751430117 45.333920901234 38.171136929635  47.69610821578 45.334491795264 38.228786492404 47.687866949352  45.33277293486 
38.238312553286 47.686562273882 45.332694132436 38.290067327892 47.677614320844 45.325584184242 38.309253811036 47.674393807164 45.323295698814 
38.349926029745 47.666155902956 45.313375024332 38.382476979781 47.659700502218  45.30592963139  38.40846875228 47.653668095626 45.296830613078 
38.455368557944 47.643195164613  45.28189256462 38.466505128181 47.640285625935 45.276826732701 38.513128454406   47.6291478017 45.259365980924 
38.524267356113 47.626584569129 45.255545542902 38.526760363575 47.626059478044 45.254865063253 38.581628881552 47.612912357444 45.234174126733 
38.598315683004 47.609358838701 45.229479781999 38.639253891552  47.59976442248  45.21481389653 38.671167559304 47.592966753917 45.205830420347 
38.695513667908 47.587446902844 45.197776799387 38.745569194026 47.577051942579  45.18464568216 38.750744147758 47.575919419667 45.183080286855 
38.765110801659 47.573032403577 45.179658140882 38.806120594534 47.565165950028 45.171235399263 38.821797607324  47.56235836434  45.16873261532 
38.861842416614 47.554788214415 45.160907608831 38.898245918513 47.548237881757 45.154985051317 38.918327806904 47.544386238036 45.150862147949 
38.975297331892 47.533889745905 45.140711326876  38.97578426649 47.533794002994 45.140602912185 38.977158602364 47.533532413265 45.140327953677 
39.033403247078 47.523191093642 45.130383954097 39.054829360425 47.519315065397  45.12682379423 39.090896204411 47.512434679079 45.119552485138 
39.136838565485 47.503821430921 45.110832986936 39.148048439155 47.501616408034 45.108333921255 39.170719581336 47.497259185066 45.103647209024 
39.204896021974  47.49079738505 45.096965260501 39.222614437433   47.4874872506 45.093644497512 39.261515655835 47.480043341203 45.085719782407 
39.309663631682  47.47089036391 45.076128165645 39.318012812014 47.469263285137 45.074321586768 39.335114000811 47.465981920078 45.070805567664 
39.375367194325 47.458358032535 45.062888303186 39.397332579698 47.454295076636 45.058917426621 39.432017411957 47.447704410016  45.05201843235 
39.489072689325 47.437194714798 45.041861661336 39.495373377189 47.435989112816 45.040578342559  39.50068409374 47.434996179718 45.039580172738 
39.561731525438 47.423997056309 45.029596367428 39.580522010001 47.420587125178 45.026435721561 39.623598268815 47.412908981571 45.019689358372 
39.654925110046  47.40723172244 45.014447559134 39.683912896922 47.402028140816 45.009775997157 39.726044881434 47.394398510808 45.002747087548 
39.742908574246 47.391355649352 44.999973099532 39.795521582889 47.381842781681 44.991248659083 39.801358247398 47.380783395392 44.990266186768 
39.830611442744 47.375495464817 44.985419970534  39.85799687135 47.370526937389 44.980817705144 39.863456939003   47.3695471997  44.97993920428 
39.913353984348 47.360548904745  44.97174958195 39.930478457934 47.357505135615 44.969098502354 39.966541571122 47.351052093327 44.963360820605 
39.995042425768 47.346043368224 44.959153786255 40.017700928486 47.342038326915 44.955726335411  40.05573584021 47.335408283963 44.950306682171 
40.069847274082 47.332943057685 44.948276533154 40.114456147358 47.325236323756 44.942168947854 40.123937850177 47.323596724442 44.940865314516 
40.173980683758 47.315030390881 44.934298249118 40.180331962735 47.313941740832 44.933459611347 40.234482021832 47.304723888745  44.92653879984 
 40.23801370152 47.304117401889  44.92606839324 40.295563143935 47.294319275072 44.918707347427 40.295708867389 47.294294465817  44.91868871183 
40.352163958812 47.284630920362  44.91128174874 40.356462263563  47.28390596719 44.910756601489 40.405908402507 47.275383433259 44.904058216813 
40.414953769865 47.273855127842 44.902943352948 40.458194686048 47.266338873947 44.896858317623 40.470216357867  47.26427224529 44.895249257792 
40.512200833324 47.256870142727 44.888966479344 40.522773502059 47.255007150789 44.887388029735 40.568797422261  47.24676628351 44.880045942718 
40.576433110211 47.245388772342 44.878790853289 40.627489714946 47.236087270118 44.870072829978 40.632946705787 47.235079709842 44.869092874913 
40.687284430134 47.224984598763 44.859110897382 40.691505391714 47.224180113987 44.858262576032 40.746869861344 47.213492146728 44.846647241505 
40.751749173545 47.212515818101 44.845500011062  40.80589430574 47.201501958489 44.832123822764 40.813329696306 47.199918711502 44.830032624744 
40.863583212355 47.188934836814 44.814881348817 40.875445092891 47.186196617904  44.81078197895 40.919860385222 47.175636444282 44.794328425885 
40.936589224865 47.171436887609 44.787333227864  40.97501182327 47.161509880483 44.770255264722 40.995479247851 47.155905756357 44.760022287915 
41.029206119813 47.146392579092 44.742159338105 41.052119247866 47.139491202411 44.728448645745 41.082716052702 47.130033189256 44.709269525123 
41.106330545838 47.122119916575 44.692262456316 41.134274531794 47.112460581042 44.671076517659 41.158415164788 47.103789989548 44.651602982856 
 41.18488108417 47.094100445139 44.629593393909 41.209882891461 47.085021943733 44.609070901939 41.236654382965 47.075245904021 44.586898378742 
41.261105807549 47.066521250319 44.567380965937 41.290276516552 47.056012328477 44.543736000038 41.311770933332  47.04855718392 44.527349244948 
41.346862298088  47.03619647986 44.499915391721 41.360748548218 47.031408917026 44.489432220284 41.404485787693 47.016009254638 44.455262498848 
41.406716889823 47.015221244433 44.453510646134 41.407591264249 47.014905089318  44.45279774721 41.450695484266 46.999400492479 44.417944735576 
41.480678844489 46.988292553264 44.392540693801 41.493814474009 46.983413101461 44.381364206926 41.509944704426 46.977234282056 44.366967970034 
[...]
CELL_DATA 1
FIELD FieldData 6
ClosedSection 1 1 int
1 
SectionArea 1 1 double
        41.3177 
SectionLength 1 1 double
        23.2775 
SectionMinSize 1 1 double
        3.26439 
SectionMaxSize 1 1 double
         4.2649 
SectionShapeFactor 1 1 double
        0.76541 
