# vtk DataFile Version 4.2
vtk output
ASCII
DATASET POLYDATA
POINTS 623 double
 51.38847084769 39.622146977744 39.927327481478 51.381950117241 39.607589946769 39.936721800437 51.375221905579 39.592450635743 39.946243149567 
51.361776058898 39.562229014718 39.965318800226 51.350525103272 39.536391513247 39.980487856477 51.341164750544 39.515272763485 39.993652078764 
 51.32997572074 39.489667690725 40.008867852364 51.320526664574 39.468116010411 40.021820834436 51.311961025646  39.44838706915 40.033285433995 
51.299851215847 39.420969581352 40.050178700761 51.287747394584 39.393412446099 40.066842496063    51.279188421 39.373925285039 40.078624971221 
  51.2696467993 39.352178642751 40.091728173499 51.258557057385 39.327329116587 40.107571457275 51.248841255285 39.305437089646 40.121276976598 
51.238047322135 39.281101403259 40.136482609974 51.225170443063 39.251823445292 40.154267310583 51.217764481837 39.235257043472 40.164889108079 
51.211785123234 39.221699933981 40.173202343058 51.197713259576 39.189839470446 40.192831615216 51.179840624227 39.148639412633 40.216703093917 
51.177990179061 39.144441309743 40.219272121916 51.176628880185  39.14130300488 40.221089994597 51.158518241472 39.099706424907  40.24549891692 
51.144039374394 39.066042673402 40.264423282921 51.139515488703 39.055548759771 40.270371139975 51.132621099668 39.039416186155  40.27923377454 
51.121103787395 39.012811879505 40.294538058423 51.114546118842 38.997540589544 40.303073739676  51.10392609772 38.972825030518 40.316920219664 
51.089621148474 38.939045494962 40.334866556133 51.087976164008  38.93515381386 40.336919837215 51.085556941363 38.929365983571  40.33984648398 
51.072362377228 38.898255391743 40.356467462125 51.059077488972 38.866072398881 40.371961828714 51.056373420563 38.859558152167  40.37516820366 
51.053800048484 38.853144178223 40.377909904967 51.039764686947 38.818728257173  40.39368076653 51.025398759894 38.782227113734 40.407983409725 
51.022604234889 38.775186310758 40.410851591757 51.019577068751 38.767284917337 40.413562439622 51.005424232072 38.730843160451 40.426957222872 
 50.99343083615 38.698748823866 40.436557737955 50.988091019838 38.684668195066 40.441133417095 50.981185907791 38.665775986175 40.446063152939 
50.970659791158 38.637292513864 40.454033673786 50.963258401402 38.616357818501 40.458329532454 50.953125355472 38.588148536995 40.464863024307 
50.935830159331 38.537728319463 40.472734920224 50.935308851259 38.536220340396 40.472989189522 50.935040888019 38.535406498915 40.473064022124 
50.917364187435 38.482494543274 40.479118499606 50.909244770971 38.456957296011 40.480119560551 50.899068054512 38.425415437966 40.482046868699 
50.884855908302 38.379248929724  40.48168275872 50.880705799275  38.36600176462 40.481914134364 50.862864635586 38.306507817574    40.479235864 
50.862594955901 38.305618586591 40.479209892479 50.859245828978 38.294129094361 40.478243345662 50.844856605638 38.244813475264 40.474159873699 
50.843844972735 38.241173303068 40.473623038637 50.828765862256 38.188027502357 40.467228301602 50.827485451268 38.183347052483 40.466443290105 
 50.81536654197 38.139843949914 40.460163112383 50.813396933445 38.132645622406 40.458957628349 50.804217763373 38.099465424263 40.453869138127 
50.794130458836 38.062800220398 40.447985180469 50.790770706228 38.050425840886  40.44579104718 50.785145794391 38.029602882333 40.441965036595 
50.777279080924 38.000698640886 40.436928347089 50.773719714055 37.987548564791 40.434545410825 50.763520050973 37.949182915499 40.426731143796 
50.754746674404 37.916170063138 40.419992096194 50.750731511017  37.90086801747 40.416628518609 50.745068248626 37.879206595611 40.411771195845 
 50.73844004155 37.854053223537 40.406373270349 50.733887974441 37.836589045294 40.402392559864 50.726134359429 37.806611265677 40.395279124663 
50.715492700115 37.764946833456 40.384764709686 50.713782025049 37.758299757744 40.383147508357 50.712617777777 37.753713396683 40.381956658937 
50.701532349525 37.709767184676  40.37021817088 50.691828667611 37.670804268083 40.359229288369 50.689312640935 37.660659587291 40.356319192499 
50.685611696033 37.645571079809 40.351798709972 50.677145393473 37.611326104029 40.341849590905 50.671625082927 37.588785177304  40.33505636815 
50.665020261098 37.561627961452 40.326657318874 50.654123075539 37.516450566574  40.31226418838 50.652870992514 37.511310156056 40.310683245825 
 50.65210410404 37.508133598477 40.309674368233 50.640766601829 37.460669501587 40.294033963688 50.632254483185 37.424692174382  40.28179822057 
50.628636237053 37.409218545479 40.276336306834  50.62345723271 37.386832314059 40.268174951846 50.616482884325 37.357021953728 40.257669682323 
50.611220479694 37.334231230523 40.249313405062 50.604262277766 37.303810977458 40.237852610486 50.595987113931 37.267155649554  40.22353348706 
 50.59205626081  37.24989794426 40.216954254961 50.588519690548 37.234147425926 40.210711887364 50.579858185167 37.195284346585  40.19500776855 
 50.57189659987 37.158934464941 40.179667372134 50.567946474528 37.141060559565 40.172288657496 50.562588437107 37.116327354066  40.16157475978 
50.556410523324 37.087659505684 40.149004928489 50.552877471264 37.070992468723  40.14142337356 50.545409471121 37.036184514192 40.126006966918 
50.538191452856 37.001931597487 40.110226045538 50.535230833984 36.988047296407 40.103991658871 50.526545459161 36.946277575214 40.084203768775 
50.524695486626 36.937464772012 40.080110338192 50.516028226414 36.895027269308 40.059274197098  50.51237944115 36.877224638307 40.050593300336 
50.505021608541  36.84025481527 40.031543060267 50.497853792573 36.804585637192  40.01348401557 50.493007598133 36.779526335522 39.999912916867 
50.487096205609 36.748702283285 39.982988401482  50.48182860084 36.722005183545 39.969018417802 50.474881819463  36.68576582898 39.949105842925 
  50.4718326471  36.66971195494 39.940153074383 50.470011403483 36.659870341391 39.934440839957 50.462324920791 36.619557378036 39.912097936263 
50.454935217131  36.57968565837 39.889008082439 50.453420956926 36.571779956584 39.884658526595 50.451059912434 36.559123180801 39.877400170144 
50.444519062161 36.523761964877 39.856862261745 50.440603861925 36.501973052913 39.843670294305 50.435657407669 36.475394974669 39.828374670874 
50.427340373279 36.429364958816 39.800720577708 50.426758312423 36.426115792699 39.798745115716 50.426435357427 36.424252715068 39.797562026666 
50.417688882085 36.375981961935 39.768676289094 50.412275834161 36.345244993432 39.749553841096 50.408422018607 36.324409122485  39.73745115171 
50.401902927058 36.287716926532 39.714890827006 50.399170398673 36.272169193998 39.705192149602 50.397840004669 36.264158154727 39.699833255446 
50.390045043535 36.219598257655 39.671866682595 50.385082225923 36.189334765767 39.651328312114 50.381211142201 36.166928054323 39.637038992833 
50.373629722057 36.119740535965 39.604284383294 50.372680099378 36.114127930398  39.60061166249 50.368961679303 36.090294143598 39.583550868632 
50.364374687606 36.060846607872 39.562437789228 50.363581556336 36.055259033926  39.55807152753 50.356175535108 36.005800025405 39.521220718401 
50.355243280612 35.998931924131 39.515654997147  50.34782232311 35.947109491028 39.475462773058 50.347780601841 35.946782206538 39.475184946066 
50.347511718292 35.944723761701 39.473467772072 50.341256635343 35.897327350835 39.434227397837 50.340196912734 35.889211704776 39.427455475734 
50.335816678053 35.850696093255 39.392290681419 50.334186873652 35.836354964037 39.379191816126 50.331279396784 35.806345750441 39.349437055975 
50.329489930061 35.788052589836 39.331378798668 50.327554747222 35.764177577939 39.305943853867 50.325946714405 35.744562185291 39.285131292799 
50.324546575919  35.72357621791 39.261371280149 50.323302914205 35.705186543702 39.240628817477 50.322099128153 35.682769850443 39.213888355043 
50.321293821547  35.66839525263 39.196896821986 50.320056158047 35.639442923779 39.160881637413 50.319718703509 35.631768335106 39.151378580053 
50.318842511529 35.601062459289  39.11114713166 50.318643464999 35.594817069887 39.103061442323 50.318620226285  35.59333739181  39.10103422304 
50.318019795723 35.556764878384 39.051049851934 50.318078499238 35.544968576772 39.033750897768 50.318188720606 35.518401565393  38.99489362213 
50.318917892901 35.497363006721 38.961129426298 50.319626499237 35.481167718203 38.934451265483 50.321528449022 35.455246172282 38.888171326635 
 50.32240219926 35.445642033055 38.870235956625 50.325649889616 35.418011288563 38.815214435946   50.3262551381 35.413373212555 38.805698367927 
50.330857634363 35.384929910466 38.743187091027 50.330934145502 35.384480104915 38.742181154107 50.331601092875  35.38117915299  38.73430723436 
50.336206446622 35.357632078962  38.67884920914 50.336853964907 35.354726013994 38.671635809063 50.341884231457 35.332151209243 38.615599800716 
50.343317187656 35.326180902488 38.600301634705 50.347735882131 35.307204948288 38.552311297109 50.349903011468   35.2980805614 38.529037735134 
50.353660655334 35.282384052506 38.488862782761  50.35659848525 35.269838752869 38.457058398006 50.359601660836 35.257715591107 38.425558586363 
50.363851208713  35.24095157949 38.381549352655 50.365969307916  35.23343722154 38.360828107346 50.372662547965 35.211101213781 38.297382845785 
50.373030989499 35.210052344619 38.294151122847  50.37373203847 35.208451808297  38.28857235598 50.380689318575 35.189714437032  38.22908976323 
50.388700220089 35.176179565686 38.172203086365 50.390073458403 35.173735788113 38.162273096298 50.391019634578 35.172520141635 38.156106881108 
50.399971318413 35.158367419137 38.093941918413 50.405030969251 35.152712310979 38.062188577825 50.410108861578 35.145875420121 38.028644552558 
 50.41857324616 35.137706362175 37.977387745708 50.420367312838 35.135660542215 37.966069930578 50.427438314754 35.129398018557 37.924061653629 
[...]
CELL_DATA 1
FIELD FieldData 6
ClosedSection 1 1 int
1 
SectionArea 1 1 double
        26.8693 
SectionLength 1 1 double
        18.4994 
SectionMinSize 1 1 double
        2.68801 
SectionMaxSize 1 1 double
        3.25207 
SectionShapeFactor 1 1 double
       0.826554 
