# vtk DataFile Version 4.2
vtk output
ASCII
DATASET POLYDATA
POINTS 379 double
9.2395302405085 21.408484311211 14.053896819686 9.2396451024839 21.443447919621 14.072161863813 9.2395331055662 21.463445036141 14.082767864375 
9.2393981523416 21.465643108187 14.084043740152 9.2380935390905 21.517299134822 14.112352105411 9.2373437670603 21.526803283462 14.118018019828 
9.2353670851252 21.570317362648 14.142652185499 9.2336123417923 21.588226402853 14.153635557478 9.2312787712152 21.622320082298 14.173641018923 
 9.228030505549  21.64959358888 14.190884428895 9.2258761630855  21.67319953494 14.205219304996 9.2207215508578 21.710861609564 14.229631268816 
 9.219431257323 21.722351274389 14.236825384737 9.2135703291473 21.761770454706  14.26279435284 9.2122409301247  21.76996274618 14.268291290355 
9.2117333526433 21.772745690158 14.270208853731 9.2043782061573 21.816330609408 14.299707333071  9.200333152556 21.841407468148 14.316511840328 
9.1969731245858 21.862962944993  14.33085158859 9.1924046839475 21.903696950912 14.356351310544 9.1913863224918 21.912180455435 14.361722084899 
9.1910441763546 21.916671190118 14.364388363744 9.1879263762658 21.962182251132 14.391095781612 9.1875292690159 21.991782429076 14.407002632949 
9.1874811351903 22.011763243622 14.417542753024 9.1902944124214 22.059808496929 14.440258448587 9.1905519433869  22.06336936314 14.441898019105 
 9.193979253183 22.088241182369 14.451888465645 9.1980932702367 22.118037739086 14.463849812648 9.1988593279704 22.121906014211 14.465194484665 
9.2102249749311 22.176009874651 14.483417435379 9.2119567799198 22.182602911559 14.485326816101 9.2269309819817 22.236415490386 14.500158113531 
9.2287684419507 22.241892997226 14.501386626659 9.2482279277296 22.297861834085 14.513325233866 9.2486257248252 22.298852115648 14.513488460857 
9.2526220303785 22.308623731085 14.515035349702 9.2696967286298 22.350243851985 14.521576173143 9.2714955887446 22.354422354822 14.522156897375 
9.2895930264068 22.393478005389 14.526432581832 9.2949474150531 22.404514590192 14.527425161447 9.3078066903324 22.430297437124 14.529429157287 
9.3212558665057 22.455953897099 14.530837327816 9.3298894340675 22.472225508753 14.531637110807 9.3442143651433 22.497538814002 14.532079027045 
 9.354286132571 22.515073286337 14.532251489309 9.3593028674001 22.523429806401 14.532139136602 9.3808443959519 22.558785996726 14.531380285546 
  9.38936035788 22.572181767833 14.530774795184 9.4185462863659   22.6164364861 14.527830042018 9.4196426101558 22.618048708099 14.527693087322 
 9.421390673396 22.620529863583 14.527427699642 9.4526368477868 22.664733184401 14.522606902509 9.4858013408632 22.709931047659 14.516586923638 
9.4881033001036 22.713032785675 14.516150444952 9.4901158556471 22.715627969379 14.515707583797 9.5242164769274 22.759441099156 14.508119973044 
9.5524517115379  22.79404760007  14.50095976369 9.5600837485417  22.80333037597 14.498986821799 9.5723246782301 22.817534774852 14.495463036775 
9.5962994265243 22.845361749941 14.488564931406 9.6103061769921 22.860938412788 14.484177265412 9.6334101780832 22.886305904478 14.476768554094 
9.6642833796915 22.918794324681 14.466128072028 9.6722807961602 22.927064272622 14.463295117947 9.6989042947486 22.953292653155  14.45317997405 
9.7137874518522 22.968010511474 14.447554572227 9.7181424146143 22.972138332791  14.44581460401 9.7580396406655 23.008590220533 14.429157391932 
9.7740925934023 23.022519214664 14.422067684854 9.8048657677759  23.04830731062 14.407996960608 9.8331492284256 23.070709020494 14.394381682253 
9.8541484867983 23.086833516923 14.384006141105  9.895233675457 23.116161664571 14.362540292198 9.9060647300598 23.123693958314 14.356776660305 
 9.959431187046 23.157922932201 14.326863191249 9.9596011506622 23.158030139501 14.326766972598 9.9601138183814   23.1583326379 14.326465777912 
10.009179845175 23.187495463668 14.297750384873 10.028433214222 23.197949403865 14.285962728711 10.052350893055 23.211053027272 14.271380929805 
10.077707648329 23.224126014835 14.255491485078  10.08661156418 23.228717105748 14.249912272803 10.122732988736 23.246742035392 14.226963188386 
 10.12470740272 23.247704822282 14.225696979112 10.141264327193 23.255533410488  14.21495011618 10.166879823442 23.267695771999 14.198350057609 
10.169647110703 23.269008049936 14.196555860608 10.211650705578 23.288096055787 14.168886096431 10.220125436857 23.291947703648    14.163303605 
10.256945634042   23.3078472046 14.138610787842 10.272299193939 23.314475609377 14.128313411691 10.301932966696 23.326513967477 14.108041860119 
10.325482968301 23.336040632506 14.091910891429 10.346292744568 23.343848022237 14.077336015979 10.378877332716 23.355966894767 14.054458446497 
10.389854508555 23.359692757129 14.046563964136 10.432634553056 23.373932121369 14.015650113316 10.432913553383 23.374015402907  14.01544346632 
10.433932325711 23.374310508196 14.014684165749 10.475651363858 23.386868208931 13.983839091618  10.48689278845 23.390188162016 13.975494205209 
10.518209184912 23.398192747415 13.951593379611 10.543189324322 23.404436346603 13.932454123351 10.560950566904  23.40823339263 13.918508430881 
10.602695140947 23.416823041577 13.885555822685 10.604093814272 23.417066632582 13.884428503174 10.607656983381 23.417653635904  13.88153899017 
10.647636860693 23.425022593501 13.849528882797  10.66395296929 23.427930391796 13.836413011889 10.691645684092 23.431928674528 13.813659679614 
10.723721639488 23.436566999251 13.787308695339 10.734453929002 23.437768803007 13.778307980931 10.759840722695 23.440456152408 13.756935482279 
 10.77612058876 23.442633127091  13.74346820037 10.784653937344 23.443820252712 13.736433293995 10.817669841003 23.447660804683 13.708819609199 
10.853695674822 23.450712936745 13.678090357161 10.860637175978 23.451682698179 13.672369919652 10.868585579869 23.452346025604 13.665584815708 
10.905248532046 23.455110248355 13.634132505566 10.933930253293 23.455715427686 13.608708986809 10.948928657035 23.456961233312 13.595902610032 
10.972163770004 23.457257351134 13.575204981714 10.988821248494 23.457360033134 13.560309068225 10.997011228873 23.456939387087 13.552737687262 
11.026518922363 23.456651341834 13.526103614273 11.040836788421 23.455629342358 13.512716619314 11.069853034497 23.454241776215 13.485945980326 
11.083543313652 23.452664275855 13.472830403586   11.1184782585 23.449384522223 13.439753753314 11.128195230351   23.4479520255 13.430280342803 
11.168912732936  23.44210384716 13.390664604738 11.173170649967 23.441225124589 13.386381545968 11.207255111575 23.434126056099 13.352061715684 
11.216918678006 23.432247067175 13.342401671131  11.21814857144 23.431988335328 13.341161933944  11.25962980644 23.420921517622 13.298119144443 
11.264550020704  23.41951126121 13.292962441734 11.302338223952 23.406642455656 13.252287423067 11.308301771182 23.404655698714 13.245891478849 
11.346461246305 23.389842594867 13.203861811709 11.349346852013 23.388783430455 13.200715588328 11.357636188801 23.385307894157 13.191450149809 
11.385980393835 23.374178620424 13.160164852458  11.40702412195 23.364443630077 13.136164119329 11.422418196927 23.358041850025 13.118984974044 
 11.43057220635 23.354179196678 13.109637618035 11.462103311604 23.339127020588 13.073431224943 11.480553050485 23.329185642653 13.051650135701 
11.501826130742 23.317455196825 13.026395249677  11.52616097255 23.301668156745 12.996261343107 11.539523093559 23.292722371335 12.979569355339 
11.566309880027 23.271276474911 12.944261982117  11.57473158947 23.264335508443 12.933057177273 11.601432265382 23.238252058405 12.895390748366 
11.606729527595 23.232933099017 12.887842213266 11.631953484361 23.203159441392 12.849562468947  11.63547364137 23.198956580533 12.844195203633 
11.658583802239 23.166686849887 12.806501250088 11.661098543014 23.163211074568 12.802418306372 11.682129825099 23.129507589582 12.765836895074 
11.684051463157  23.12648587927 12.762524795922 11.703282045269 23.092167914852 12.727236671284 11.704767017921 23.089596812131 12.724553200008 
11.721928887705 23.056432467752 12.691727770459 11.723068880935 23.054257061371 12.689561792529 11.737641203129  23.02383137546 12.660499200454 
11.738682224109 23.021662939579 12.658425710707 11.750579257107 22.996304841501 12.634426411026 11.765222460949 22.963294017299 12.603942101285 
11.767175443985  22.95876765319 12.599811400596 11.770657919829 22.949893360262 12.592023816839  11.78489522925 22.915936533687 12.561406809418 
 11.79100751851  22.90091927622 12.548031798016 11.803259601207 22.867526556566 12.519492857794 11.815299922949 22.834403665541 12.491285724578 
11.820276715138 22.818714721103 12.478576935415 11.829291230646 22.788756047381 12.454747743126 11.835106572924 22.771277769665 12.440346340599 
11.838021793043 22.761656792417 12.432675590445 11.848180674707 22.725065984869 12.404335153886 11.858096525555  22.68328282232 12.373485030513 
11.859309681359 22.677680376305 12.369452994959 11.860427641673 22.671607060242 12.365259024473 11.869785364503  22.62913295369 12.334546825885 
11.878096450937 22.578448054222 12.300460429106 11.880242112061 22.568260209576  12.29318254377 11.881549340628 22.560506987926 12.287936169258 
11.889072370358  22.49956023058 12.249165975629 11.891744109512 22.475895950461 12.234336097329 11.894706487908 22.439936390865 12.212786049418 
11.897797186028 22.392953758543 12.185329865229 11.898056233574 22.386927208081 12.181931325427 11.898579571712 22.372462958075 12.173862843129 
11.900071098437 22.335501594537 12.153106566645 11.900441425542  22.32379490936 12.146624096283 11.900520011612 22.277980429338 12.122484929958 
11.900430130186 22.265950930381 12.116245900198 11.898381668792 22.211010574079   12.0892214507 11.898263187288 22.208165082267 12.087832907136 
11.897314813805 22.195037742315  12.08178761142 11.894066300617 22.150047081648 12.061067264332 11.892922101364 22.139296106962 12.056446143006 
 11.88773726706 22.093345093592 12.036959096166 11.883787214999 22.065937592238 12.026105683041 11.879466167398 22.037559415473 12.015075288989 
 11.87036049452 21.987392915744  11.99689253506 11.869437777844 21.982493268913 11.995146631176 11.867526975563 21.973611633723 11.992195582983 
11.857294313603 21.926957093021 11.976869293854  11.84991018661 21.896727131212 11.967615136115  11.84328399528 21.870038249342 11.959541047853 
11.835330745555 21.840125091655 11.950964102966 11.828569848417 21.815606677622 11.944151166558 11.818379325922 21.781078976977 11.935157893086 
11.813455828924  21.76455419909 11.930895371996 11.811354489383 21.757820763384 11.929243884937  11.79603336182 21.711002026327 11.918398163038 
 11.79329198232 21.702794342248 11.916546606664 11.778460743434 21.661499750642 11.908163326157 11.773568215961 21.647995799065 11.905460001402 
11.772117958607 21.644313122349  11.90482689324 11.751442430644 21.591940380295 11.895868875496  11.73885173381 21.562081087828 11.891482273598 
11.725086780413 21.528826578648 11.886365873739 11.710952353006 21.495501608005 11.881544054786 11.696500140311 21.464250378258 11.878096883499 
11.672032824581 21.411590892937  11.87239130247 11.669691585307 21.406929030001 11.872043422841 11.663032633414 21.393826544204 11.871136349711 
11.642787150064 21.354302496329  11.86854243415 11.637054923549 21.343374559701 11.867946037133 11.617147010703 21.307442148029 11.866936022721 
11.608642237064 21.292312793897 11.866620733931 11.586591133024 21.255093472658 11.866858126171 11.578525583126 21.241505719959 11.866958520413 
11.552268284683  21.19991244171 11.868673055934 11.545718380763 21.189555471972 11.869110470573 11.514822172616 21.143358644206 11.872569888977 
11.510800307364 21.137414082522 11.873056482243  11.47550999399 21.087649748985 11.878585360452 11.475321058642 21.087387155593 11.878616973891 
 11.47397892164 21.085609112268 11.878887428326 11.439654877633 21.040449049527 11.885967946685 11.434074431911 21.033490048795 11.887320408913 
11.404840500851 20.997313309575 11.894552009903 11.391737620762 20.981963677485 11.898247735287 11.370676427041 20.957386632651 11.904238316376 
11.346594021586 20.930789246193 11.911879006933 11.336711065901 20.920084505733 11.915125088273 11.317843995222 20.900677972678 11.921862802443 
 11.30130703355 20.884140197709 11.928016377898 11.291886926887 20.875152249654 11.931748975481 11.263181920739  20.84840812554 11.943461297856 
11.233360904322 20.821733488014 11.956211728852 11.222378314587 20.811945226762 11.960926188941 11.194572007086 20.788601269728 11.973618219386 
 11.18046462872 20.776989292167 11.980179044889 11.174347099675 20.772171361658 11.983138343211 11.138641075156 20.744038707592 12.000404518941 
11.117302144147 20.727896762424 12.011075744905 11.098749073463 20.713854202541 12.020349611634 11.067899311779 20.691464349856 12.036274338989 
11.066959800249 20.690784495694 12.036760376271 11.033731304935 20.667809575532 12.054512619099 11.023964695654 20.661166658571 12.059788160059 
10.990416098815 20.639384489667 12.078454301452 10.974031654133 20.628996490405 12.087701779588 10.942961188885 20.610111684995 12.105665961886 
10.922527385119 20.598128354437 12.117709576743 10.894840533627 20.582603330026 12.134402073205 10.872619795007 20.570817204954 12.148153039377 
10.843556599885 20.555920729888 12.166410993675 10.824564168871 20.546530739212 12.178523407413  10.78014775658 20.525570839534 12.207375242589 
10.773240715378 20.522408562291 12.211912914616  10.76628374289 20.519594876637 12.216678531869 10.722640618035 20.500818788275 12.245983617468 
10.697273338908 20.491176667461 12.263684913004 10.678332674384 20.483571586351 12.276688569245 10.653105783972   20.4741029504 12.294355008114 
10.634460928802 20.467061633275 12.307389352935 10.610934617696 20.458986551045 12.324261648731 10.584758323259 20.449217689744  12.34262244125 
10.572638603754  20.44471423291 12.351133831567 10.524419745517 20.428864698227 12.386083039775 10.514711763619 20.425380554624 12.392965425003 
10.468491632375 20.410192182249 12.426468144876 10.463253294033  20.40826113043 12.430155003332 10.430800295936 20.397200208362 12.453470266816 
10.416572250809 20.392269391742 12.463649336878 10.414274861963 20.391591874126 12.465355277849 10.372201887285 20.376666968002 12.495274393826 
10.358050202571  20.37290519048 12.505999086141 10.327289831427  20.36283459974 12.528315510801 10.302929319549 20.356925735028 12.547074512639 
10.280863023765 20.350516349352 12.563511538456 10.249631455367 20.343779062977  12.58800200756   10.2335888942  20.33959188086 12.600200249146 
10.197372107943 20.332485926096  12.62897120267  10.18549121912 20.329690349619 12.638165480661 10.145576582209 20.322435617584 12.670177044069 
10.136696561423 20.320500949216 12.677130362397 10.093872891029 20.313209065493 12.711733225645 10.087122575342 20.311802662689 12.717052687291 
10.042119922783 20.304396642866 12.753551195615 10.036922030616 20.303341650543 12.757661992029 9.9906732012736  20.29640935623  12.79552779854 
9.9864134452228 20.295660327216 12.798957368533 9.9402356714155 20.290677288466 12.837783445062 9.9363047610916 20.290210665397 12.841066242504 
9.8910345386407 20.287445011424 12.880242707252    9.8867679686  20.28712491066 12.883903730157  9.843309832452 20.285733219734 12.922175683878 
9.8377202017481 20.285444162437 12.927040444187 9.7970224075538 20.285236471709 12.963457043517 9.7891526447246  20.28512232722 12.970460081439 
9.7520944137541 20.286196193461 13.004283488848 9.7409899396874 20.286447683922 13.014381721861 9.7084538775525 20.288609970035 13.044718346399 
9.6933289886134 20.289634616543 13.058831023895 9.6656249606303 20.292781170965 13.085348049688 9.6464284266791  20.29516150597 13.103827183424 
9.6233007019646 20.299084272316 13.126644822999 9.6004987247128 20.303243199367 13.149294175736  9.579822202671 20.307992519393 13.170346124641 
9.5532760953875 20.314499253365 13.197589202835 9.5335037833932 20.320107385705 13.218280812717 9.5034164488322 20.328433880458 13.249658104909 
9.4850072510223 20.334830568861 13.269540606504 9.4654505577203 20.343998067934  13.29190861484 9.4383637226667 20.354028052179 13.321487928238 
9.4121170608979 20.366837439779 13.351773357199 9.3946183279648 20.374234821352 13.371364443251 9.3649913377856 20.390488661132 13.406493213297 
9.3539418922883 20.395809069592 13.419205014923 9.3224902236865 20.415945230462 13.458010986045 9.3169151860676 20.418998525987 13.464618554268 
9.2827971927325 20.445031955292 13.508915644993 9.2824574823592 20.445257441249 13.509338989418 9.2803884620562 20.447220831748 13.512227373807 
9.2503342720983 20.474378808427  13.55346803793 9.2468374167103 20.478894469551 13.558978719974 9.2216584347969 20.508177153876 13.596960167167 
9.2149356466884  20.51957825673 13.608983346101 9.1971308057389 20.546304413178 13.639003531479 9.1889058864521 20.565541131751 13.656491293057 
9.1792585441981  20.58818642769 13.677046355722 9.1723852637223 20.614067900954 13.696811861866 9.1681840267096 20.633363850074 13.710719540798 
9.1633447256099 20.668115095209 13.733319312995  9.161934176722 20.678443068968 13.740011062053  9.161150030158 20.701430799964 13.752791426936 
9.1590019488651 20.724354642036 13.766762340402 9.1590017538725  20.73687322863  13.77333915469 9.1590270082951 20.773838591314 13.792736241939 
9.1640386330658 20.818087587324 13.811484587153 9.1642744534675 20.827375837568 13.816152523721  9.166786041325 20.842975389389 13.822093632539 
9.1725466317183 20.883487053227 13.838206384022 9.1766287689835 20.900609070472  13.84353777357 9.1821176407531 20.940129198666 13.859373485539 
9.1890141170573 20.970260815487 13.869013637516 9.1920737693884 20.992024025189 13.877700943596 9.1995717216788 21.028847512303 13.890316853122 
 9.200120932545 21.032823340355 13.891912645145 9.2061515045539 21.070305133699 13.906191349427 9.2081762026404 21.087368516464 13.913338458672 
9.2139333393811 21.121759560377 13.926238842173 9.2172323515576 21.150126347359 13.938180515317 9.2218240362005  21.17798650394 13.948695874456 
9.2258477493497 21.215648416643 13.964870332622 9.2290090402301  21.23635128144 13.972909367324 9.2324721820571 21.280086512232 13.992777548099 
9.2342796393258  21.29472875447 13.998847681845 9.2369158188636 21.343108462446 14.021898025903 9.2378663938707 21.352360875245 14.025905652858 
9.2392535784384 21.404717711869 14.052166337173 
POLYGONS 1 380
379 0 1 2 3 4 5 6 7 8 9 10 11 12 13 14 15 16 17 18 19 20 21 22 23 24 25 26 27 28 29 30 31 32 33 34 35 36 37 38 39 40 41 42 43 44 45 46 47 48 49 50 51 52 53 54 55 56 57 58 59 60 61 62 63 64 65 66 67 68 69 70 71 72 73 74 75 76 77 78 79 80 81 82 83 84 85 86 87 88 89 90 91 92 93 94 95 96 97 98 99 100 101 102 103 104 105 106 107 108 109 110 111 112 113 114 115 116 117 118 119 120 121 122 123 124 125 126 127 128 129 130 131 132 133 134 135 136 137 138 139 140 141 142 143 144 145 146 147 148 149 150 151 152 153 154 155 156 157 158 159 160 161 162 163 164 165 166 167 168 169 170 171 172 173 174 175 176 177 178 179 180 181 182 183 184 185 186 187 188 189 190 191 192 193 194 195 196 197 198 199 200 201 202 203 204 205 206 207 208 209 210 211 212 213 214 215 216 217 218 219 220 221 222 223 224 225 226 227 228 229 230 231 232 233 234 235 236 237 238 239 240 241 242 243 244 245 246 247 248 249 250 251 252 253 254 255 256 257 258 259 260 261 262 263 264 265 266 267 268 269 270 271 272 273 274 275 276 277 278 279 280 281 282 283 284 285 286 287 288 289 290 291 292 293 294 295 296 297 298 299 300 301 302 303 304 305 306 307 308 309 310 311 312 313 314 315 316 317 318 319 320 321 322 323 324 325 326 327 328 329 330 331 332 333 334 335 336 337 338 339 340 341 342 343 344 345 346 347 348 349 350 351 352 353 354 355 356 357 358 359 360 361 362 363 364 365 366 367 368 369 370 371 372 373 374 375 376 377 378 

CELL_DATA 1
FIELD FieldData 6
ClosedSection 1 1 int
1 
SectionArea 1 1 double
         9.8804 
SectionLength 1 1 double
        11.3247 
SectionMinSize 1 1 double
        1.60015 
SectionMaxSize 1 1 double
        1.92986 
SectionShapeFactor 1 1 double
       0.829152 
