# vtk DataFile Version 4.2
vtk output
ASCII
DATASET POLYDATA
POINTS 863 double
34.848377555579 50.488543687531 48.823291660768 34.834534842099 50.481945188336 48.803911904853 34.812090969021 50.471255262983 48.772516651649 
34.811745391269 50.471086927013 48.772021828241 34.776803643602 50.454154209577 48.722258178404 34.775802917139 50.453655975922 48.720792389846 
 34.74237217034 50.437045325536 48.671928109502 34.740556993272 50.436115822696 48.669190655361 34.708773656954  50.41983076472 48.621228910751 
34.705889486483 50.418304933049 48.616729901284 34.675894324477 50.402402484408 48.569836972453 34.671547959713 50.400022989084 48.562812446368 
34.643518438941 50.384756602782 48.517752459174 34.637065549999 50.381145944957 48.507085480714 34.611417321904 50.366949181041 48.465159314945 
34.601831499646 50.361519491525 48.449111790956 34.579606430993 50.349123595201 48.412494530581 34.565333366621 50.341003062459 48.388490655089 
34.548245610803 50.331468529862 48.360325419312 34.527295565302 50.319567410745 48.325148110115 34.517704165261 50.314246963614  48.30943450914 
34.493825780204 50.300755332263 48.269563125099 34.489216256371 50.298171488619 48.261929206723 34.487316401758 50.297087669459 48.258725207916 
34.461617445288  50.28281541987 48.216571344783 34.447922750756 50.275065034615 48.193665629747 34.434327253467 50.267575185524  48.17155003225 
34.413638304833 50.256002261416  48.13736044217 34.405408200744 50.251477332945 48.124000411775 34.379602872916 50.237088889293 48.081497633093 
34.374516625267 50.234283768016 48.073214520755  34.34416627425   50.2173582515 48.023217062163 34.341712318987 50.216001070563 48.019209121964 
34.307888776507 50.197142086695 47.963500602708 34.307682027537 50.197027351882 47.963161735835 34.304596799849 50.195305406024 47.958075020202 
34.272896925207 50.177642417842 47.905900603246  34.27076145708 50.176444486601 47.902361247433  34.23780572017 50.157962624918   47.8477560632 
34.233032926136 50.155262311436 47.839775557081 34.202986330136 50.138186214233 47.789301321313 34.194919220764 50.133548224269 47.775586934703 
 34.16903799529 50.118513588197 47.731114995557 34.156597819801 50.111174152612  47.70939437547 34.136528185448 50.099119358131 47.673698711238 
34.118315775152 50.087952523704  47.64061129224  34.10611851298 50.080298256775 47.617915684153 34.080965009435 50.064151439507 47.570006742597 
34.077623617365 50.061947135906 47.563461239788  34.06670564614 50.054575847447  47.54155853888 34.050592341654 50.043809713727  47.50957786154 
34.046023371321 50.040674856191 47.500258957924 34.024885348088 50.025730488457 47.455798429772 34.014416303893 50.018092365867 47.433055840616 
34.000411001751 50.007508971609 47.401515783543 33.986096632099 49.996276815191 47.368011708889 33.977307523336 49.989087066798  47.34654480327 
33.960862405554 49.974991035755 47.304413531998 33.955700498043 49.970391816258 47.290655688579 33.938346164514 49.954040033171  47.24168629425 
33.935673032549 49.951428989228 47.233861427879  33.91810794026 49.933090773879 47.178837465656 33.917188872858 49.932107189173 47.175884927666 
33.906429764734 49.919727127246 47.138677223047 33.900208344579 49.912595777923 47.117245607657  33.89973657573 49.912002436362 47.115459902034 
33.884495239211 49.892634867609   47.0571629634 33.882703314512 49.890094396456 47.049504522795 33.870421218102 49.872823505631 46.997445702687 
33.866897577087 49.867323832115 46.980846715587 33.857881409072  49.85389820414 46.940348882069 33.847300279054 49.836838999525 46.888841758993 
33.846880842293 49.836138871032 46.886727024184 33.846193157879 49.834985454423 46.883242950314 33.835472797287 49.817788616111 46.831323268467 
33.829645833295 49.809003061308 46.804817945046 33.823610446497 49.799348624853 46.775670780097 33.813996234934 49.784818936029 46.731834604741 
33.811416465775 49.781185204695 46.720881380489 33.809284602861 49.778375729156 46.712420373824 33.797882904083 49.762858330788 46.665667445826 
33.784787460658  49.74621069822 46.615557290471 33.783239260842 49.744368301258 46.610017100499 33.781461975862 49.742378677708 46.604040062339 
33.767498242114 49.726091537057 46.555079178016  33.75453966526 49.711818538465 46.512213225638 33.750896935636 49.708055201535 46.500923422962 
33.746092575572 49.703354347567 46.486835280915 33.733462352203 49.690281180772 46.447615167774 33.723674877807 49.680612407944 46.418633260585 
33.715656360716 49.673407017848  46.39707565541 33.703549289426  49.66319994794 46.366579089023 33.696937678839  49.65731778117 46.348984055837 
33.693146976945 49.654123753051  46.33944109334 33.677328070967 49.642075791846 46.303529477188 33.669197394493 49.635894216845 46.285104720966 
33.650191002002 49.623646828636 46.248761663988  33.64325313776 49.619064969559 46.235155780544 33.620970369277 49.606795391916  46.19892749587 
33.612895524521 49.602445168082 46.186092341144 33.608315496779 49.600278345461  46.17973030828 33.579854969575 49.586131262977  46.13811254423 
33.554885191287 49.575086884815 46.105775562707  33.54638365325 49.571125474771 46.094151567789 33.533669956211 49.565819169245 46.078655105292 
33.511691798464 49.556964345457 46.052838071066 33.488734199051 49.548687973587 46.028842122362 33.475161940602 49.543541725417 46.013882287378 
33.463697552414 49.539643866655 46.002617438544 33.435721434451 49.530599417333 45.976555475213 33.397618900984 49.519459458942 45.944658266123 
33.392601569655 49.518070600617 45.940696400032 33.380034139109 49.514878863491 45.931649409832 33.346405877174 49.506099349666 45.906711422215 
33.333133938613 49.502870091167 45.897589096644 33.297775128637 49.494762058572 45.874798140378 33.270689617444 49.489084054809 45.858967252678 
33.246617684299 49.484340439351  45.84582197246 33.209850601152  49.47789336371 45.828181824921  33.19258897338 49.475113525245 45.820654247257 
33.150275082514 49.469152235547 45.804806655849 33.134594682897 49.467196813929 45.799708647096 33.090302226007 49.462434159321  45.78763176522 
33.067986944472 49.460316094856 45.782406713707 33.028378293253 49.456864844862 45.774073745844  32.99513090444 49.454426196404 45.768478729879 
32.956626096094 49.451956524146 45.763081876622 32.930929752034 49.450431092083 45.759855016978 32.890078130732 49.448269009907  45.75552825192 
32.871941538509 49.447382853367 45.753832483144 32.829124188996 49.445498955579  45.75046477377 32.816554439604 49.444976761759 45.749570356295 
32.767718453016  49.44322140569 45.746930511839 32.759725242188 49.442968131224  45.74660236799 32.701068052076 49.441645614148 45.745831524905 
32.698174973545 49.441585993608 45.745810632841 32.675629355182 49.441338384994 45.746310546769 32.630576718362 49.440783610152 45.747126342787 
32.624336410818 49.440766206341 45.747420858619 32.555201270467 49.440486076533 45.750417088492  32.53934374297  49.44054043784 45.751466567808 
32.471050695141 49.440826075554  45.75614366396 32.451736832452 49.441059100103 45.757931319969 32.415007604382 49.441788606546 45.762205426446 
32.376242033663 49.442376876058  45.76616166371 32.343030104614 49.443145721651 45.770359948427 32.308296528036 49.443925676839 45.774676935632 
32.277859350911 49.444770030384 45.778951222845 32.244207327303 49.445589264024 45.783327905097  32.20555814201 49.446733131992 45.788974384771 
32.183770164399 49.447365701717 45.792120040409 32.167290574099 49.447915255651 45.794716431464 32.124697432137 49.449202226977 45.801019659242 
32.069467765127 49.451096037925 45.809880113408 32.065320948176 49.451227501377 45.810512616637 32.057489393376 49.451504016211 45.811793375186 
32.006563746758 49.453275244389 45.820039688349 31.976421380063 49.454420887987 45.825217652109 31.944555002322 49.455566301372 45.830490962265 
31.915858478969 49.456679460065 45.835489169337 31.880699425375 49.458077896273  45.84171862291 31.831031350708 49.460123258455 45.850732043411 
31.819389993068 49.460609278875 45.852864859884 31.786343516804 49.462030527246 45.859046281342 31.758760459195 49.463194179008  45.86413665352 
31.749866455909 49.463581081805 45.865813714728 31.700159449209 49.465759084405 45.875234371095 31.671646120521  49.46704179309 45.880740155857 
31.642746473775 49.468359563854 45.886374538573 31.595528391521 49.470578218898 45.895780677416 31.586463344526 49.471013024255  45.89761355623 
31.560063687971 49.472323358123 45.903085946229 31.530944748656  49.47374722683 45.909056555876 31.521078456283 49.474246938281   45.9111322892 
31.476085274701 49.476583880065 45.920775705215 31.447648859539  49.47811448648 45.927034252848 31.421972259576 49.479540717683  45.93282029498 
31.375360197591 49.482224743895 45.943613854729 31.368338242861  49.48264595722  45.94529139888 31.346768948466 49.483995961699 45.950615824971 
 31.31500723336 49.485968019702 45.958407770927 31.304978818204  49.48662739892 45.960980141479 31.260566322381 49.489733511278 45.972940154355 
31.235072135036 49.491652196778 45.980219926161 31.204670723748 49.494080223745 45.989328556669 31.163424734623 49.497732853633 46.002781149249 
31.144025212599   49.4995694743 46.009470754848 31.120759746022 49.502061447364 46.018377105274  31.08340486758 49.506120537492 46.032854190827 
31.029498131224 49.512495815317 46.055326767036 31.024175135963 49.513136372205 46.057579504607 31.012931598638 49.514571862243 46.062589716083 
30.963154165451 49.520936451772 46.084799596669 30.941947210675 49.523823314277 46.094797203497 30.902955461849 49.529201434797  46.11339363361 
30.858585309966  49.53567374352 46.135631220186 30.843605081958 49.537889873542 46.143233587648 30.791620384688 49.545956021149 46.170762781598 
30.786903176301 49.546687072538 46.173258127723 30.785574611451 49.546904574421 46.173996368664 30.735106644623 49.555267621082 46.202347753059 
30.720387240474 49.557865529316 46.211101491089 30.689952146409 49.563289366132 46.229360817946 30.646239209856 49.571456073918 46.256736267075 
[...]
CELL_DATA 1
FIELD FieldData 6
ClosedSection 1 1 int
1 
SectionArea 1 1 double
        44.0603 
SectionLength 1 1 double
        26.3043 
SectionMinSize 1 1 double
        2.27335 
SectionMaxSize 1 1 double
        5.25344 
SectionShapeFactor 1 1 double
       0.432735 
