# vtk DataFile Version 4.2
vtk output
ASCII
DATASET POLYDATA
POINTS 297 double
45.694901942931 22.967632147231 38.215556741861 45.692818523567 22.928341232718 38.233310963771 45.692043191798 22.914964400844 38.239420936255 
45.691635331855 22.906196169406 38.243326422039 45.689105040064 22.861709405336 38.263598326095 45.687269741952  22.81915682726 38.282409007468 
45.686709246091 22.808035451434 38.287405413481 45.686078357751 22.789271442392 38.295523343151 45.684804319606 22.756743222622 38.309774906796 
45.684438707482 22.735106721625 38.318776893051 45.683811213324 22.706389035198 38.330866021483 45.683941452733 22.672943178296  38.34409205723 
45.683950150219  22.65590957959 38.350885054349 45.684515102473 22.636644688569 38.358017649859 45.685244342847 22.603010595207 38.370725108706 
45.686591844707 22.574848661771 38.380634669008 45.687915151978 22.545790093836 38.390926242973 45.691175105512 22.504470633479 38.404194025256 
45.692821873131 22.481721660521 38.411645520179 45.694125219832 22.470163897057 38.414968703135 45.701029601577 22.413808532849 38.430627987369 
45.702783172324 22.403173512431 38.433136443076 45.710737044062 22.358611524323 38.443046287514 45.713255892754 22.347527465473 38.444975489293 
45.721077585134 22.314199254715 38.450530637618 45.738498765381 22.258539599423 38.455487675689 45.738543669159 22.258394224881  38.45550121516 
45.738615583932 22.258207339351 38.455504556419 45.761511814662 22.199186483739 38.456376770535 45.782507190429 22.153221470467 38.453919871059 
45.793285645219 22.128893363047 38.452950426435 45.803844680907 22.108194316449 38.450749368315 45.830823834127 22.058093462942  38.44401270366 
45.857060412721 22.014019339825 38.435605583098  45.86733963843 21.997530159346 38.432000852994 45.889313014522 21.965990320617 38.422814482686 
45.904797628317 21.943383733308 38.416492792795 45.912611192913 21.933105599107 38.412851963576 45.942579181974 21.894534427223 38.398548838398 
45.970316878075 21.861285025224 38.384331406234 45.980991243404  21.84864994382 38.378796041523   46.0031298312  21.82395698738  38.36671190911 
46.019875954445 21.805142310346 38.357625655155 46.027926296319 21.796590681949 38.353060723779 46.058787133056 21.763861827263 38.335539719119 
46.084307015682 21.738257284084 38.320467986716 46.097526913114 21.724968643315 38.312670413625 46.128233818697 21.695709202153 38.293916630725 
46.135970130924 21.688302560074  38.28920577144 46.139438571552 21.685163164316 38.287021368438 46.174395034491 21.653256606716 38.265112355084 
46.196118357623 21.634467924895 38.251082228391 46.212869533729 21.619810522947 38.240330941047 46.243333235879 21.594764074519   38.2201359526 
46.251695482122 21.587853964193 38.214606387818 46.256896545414 21.583842843094  38.21105266231 46.291006812875 21.557234831385 38.187866672397 
46.322543672686 21.534306536456 38.165762158797 46.330563963132 21.528421109568 38.160162384683 46.341841258662 21.520726245971 38.152056725762 
46.369397557297 21.501743747831  38.13232223776 46.393677061962 21.486278126103 38.114431458754 46.408233433928 21.476943473528 38.103730296133 
46.420877767216 21.469502565153 38.094168198227 46.447801930858 21.453358601212 38.073926850388 46.486694098328 21.432014416557 38.043899074893 
46.489012397356 21.430702855944 38.042124847995  46.49317935891 21.428545409156 38.038855959997 46.531887861586 21.408387608676 38.008536506124 
46.550934534563 21.399369973675 37.993257886972 46.575545393826   21.3870834932 37.973769212964 46.614206117847 21.369545838403 37.942450878275 
46.618987892904 21.367211523672  37.93864320018 46.630567447453 21.362073269878 37.929217066878 46.661892636706  21.34802974423 37.903774623339 
46.674136520262 21.343087010051 37.893611922667 46.704059526772 21.329813175647 37.869252006292 46.730446664136 21.319295007141 37.847296554953 
46.745569045057 21.312639335219 37.834964620717 46.782985548156 21.297848508633 37.803782755849  46.78678930225 21.296181973407 37.800677861877 
46.802906678159 21.289854486712 37.787228623853 46.826621850257 21.280446552432 37.767478350769  46.83191344989  21.27861236461 37.762965621437 
46.866088926271 21.265318642858 37.734398519319 46.876771079624 21.261685710393 37.725260822857 46.906652571487 21.250513212226 37.700102980393 
46.915062660974 21.247672124619   37.6929012073 46.935520954909 21.241119719117 37.675238982377  46.95409907054 21.234465985065 37.659480886102 
46.966610678348  21.23046937561 37.648675018911 46.995150314933 21.221834751508 37.623833859897 47.027756568315 21.213091264226 37.595005264731 
47.038545534047 21.209552209488  37.58572420792 47.046782208504 21.207306016625 37.578456781974 47.081700602592 21.199110858776 37.547117398892 
47.116657801172 21.194453962782 37.514326702877 47.123681864471 21.193732960966 37.507652221622 47.132352696565 21.193818312979 37.499023450719 
47.165094834129 21.191436992248 37.467519713336 47.196136488894 21.193478258478 37.435935560466 47.204697579614 21.194014402421 37.427235563322 
47.213563903957 21.196090673505 37.417618030943 47.242375816913 21.199787055496 37.387583141783 47.266030978459  21.20766001347 37.360991988244 
47.276908786862 21.211068624867 37.348848624132 47.290482066466 21.218459281052 37.332443404663 47.309005929254 21.226853006511 37.310730543887 
47.320537924437  21.23493838801 37.296071275346 47.338570350192 21.247029475906 37.273369157039 47.363870558219 21.270300702568 37.238998781832 
 47.36557354343 21.271774912151 37.236722090619 47.369196655629 21.275856693366 37.231500914972 47.391591876704 21.299349989541 37.199921342934 
47.399708419866 21.310129865396 37.187571605908 47.416341221784 21.331213365143 37.162666096624 47.430258008687 21.353379884218 37.140020295598 
47.439884774138 21.368121672392 37.124591582898 47.456609120728 21.400062515877 37.095259930301 47.462246774698 21.410447377115 37.085525045852 
47.479434024896 21.449463269223 37.052909445236 47.483345572809 21.458285600171   37.0455094368 47.498813568658 21.501269719164 37.013013456111 
47.502558906625 21.511940407678 37.005040137777 47.515187816957 21.554889934002 36.975372124284 47.519685653193 21.571066648913 36.964454326336 
47.529050790131 21.609806064181 36.939702548089  47.53469398656 21.635245009499 36.923950983698 47.540815773702 21.665760338283 36.905698000935 
47.548032337576    21.704059412 36.883251759121 47.551291507302  21.72229662966 36.872738979234 47.560893165294 21.777988111892 36.840983694825 
47.561021856649 21.778783241683 36.840538633472  47.56125921329 21.780502400425 36.839616890767 47.570226979142 21.833979258428 36.809374244736 
47.573952864521 21.862258695273 36.794388929241 47.577467933339 21.888905633554 36.780264445503 47.581159012894 21.926531716872 36.761581458134 
47.583345399515 21.943711716014 36.752554194428 47.584647345142 21.957011084555  36.74595316411 47.588645111094 21.998435615346 36.725449440624 
47.591467145103 22.048571619677 36.702632580726 47.591815086753 22.052649704941  36.70065929059 47.591951446901 22.056399081708 36.699026979234 
47.594269059403 22.106057364532  36.67690086834 47.594383378201 22.153976289051 36.657653239178 47.594491717683  22.15857998212 36.655707568795 
 47.59441242051 22.163459373203 36.653837799468 47.593960530033 22.210084276251 36.635668117966 47.591672517182 22.254497295926 36.620201653273 
47.591465481877 22.261124257467  36.61776068497 47.590959109293 22.268223664647 36.615427774943 47.588060164031 22.312106424877 36.600778613548 
  47.5838091187 22.352210067419 36.588978703159   47.5828450089 22.363011653923 36.585621208305 47.581219809078 22.375536276932 36.582230979301 
47.576362882017 22.414451628856  36.57150612168 47.571238716981 22.445693790671 36.564110106168 47.568352580068 22.464874823388 36.559311796998 
47.563743243112 22.488858701992 36.554303750422 47.559108031363 22.513998525719 36.548859775592 47.555003707204 22.532512698295 36.545535237436 
 47.54848885087 22.563047238482 36.539800258454 47.537993129004 22.606043243286 36.533035249466  47.53547023896 22.616324471053  36.53143062882 
47.524131304582 22.657367327704 36.526281331472 47.519472788986 22.674464899698 36.524071775247 47.518415592792 22.677948536173 36.523728650732 
47.499007139028  22.73933259526 36.518455646168 47.496940653325 22.745406314452 36.518078712523 47.477388629537 22.800086180696 36.515625041678 
47.473780431676 22.810240018172 36.515147065947 47.473271579863 22.811593674961 36.515110926004 47.449643048843 22.872515064589 36.514205686853 
47.444845445905 22.884167542387 36.514308255381 47.425155013847 22.931041676658 36.515108653016 47.415041768419 22.953761209046 36.516061043469 
47.400318682492 22.986492834737 36.517584904222 47.382775093634 23.023154864662 36.520335065699 47.375344029791 23.038570698287 36.521545238864 
 47.35671841156 23.074887640859 36.525505723344 47.349797370967 23.088411149621 36.526965968698 47.346100529592 23.095183483646 36.527926112689 
47.322909872957  23.13731357813 36.534090321308 47.300304732311 23.176249346974 36.540949669043 47.295750006635 23.184033658561 36.542356075122 
47.286626293891 23.198642414526 36.545566304176 47.267507988156  23.22920926946  36.55231119415 47.260398298494 23.240014918679 36.555043689587 
47.238432941052   23.2728473904 36.563705955547 47.229825973091 23.285215399174 36.567298721409 47.202526259096 23.323169273159  36.57920349369 
47.198111976164 23.329066904947 36.581224052892 47.176228545247 23.357300815198 36.591641344967 47.164220323677 23.372816188642  36.59734873478 
47.161516320598  23.37621414662 36.598672167681 47.126798549601 23.418380670617 36.616247718984 47.115370917518 23.431874492008 36.622186835618 
47.087640892349 23.463717318049 36.636958318436 47.064659567418  23.48939399727  36.64948498109 47.045519603863 23.510084402195 36.660195064479 
47.023338914555 23.532885360578 36.673076414873 47.001559285183 23.555735212596 36.685540703711 46.960799027838 23.595471369059 36.710076139719 
46.956898927698 23.599336700042 36.712398541329 46.930962479715 23.622492844041  36.72886084152 46.909799228679 23.641448918053 36.742268973672 
46.907307623967 23.643486332803 36.743925146459 46.860676797197 23.681803123018 36.774846361051  46.85860937353 23.683368770246 36.776270457335 
46.812159221244 23.718676494683 36.808214122065  46.81085661033 23.719589100866 36.809140884996 46.765022000828 23.751790858535 36.841714643498 
46.763757469029 23.752621865301 36.842636244842 46.717432922462 23.783426366109 36.876253571089 46.715990386097 23.784313810104  36.87732907813 
46.669125024724 23.813727595444 36.912037791063 46.667317218691  23.81476406713  36.91341585251  46.61947858339 23.843110091966 36.949515655763 
 46.61784710565 23.844003664633 36.950775997778 46.568323100424 23.872262344068 36.988581248451 46.567898154439 23.872488238978 36.988912261586 
46.559440482113 23.877231144741 36.995401792263 46.516862750937 23.901148706083 37.028055201988 46.514444716767 23.902587440341 37.029877507007 
46.465274820778 23.929893524139 37.067712135204 46.456802328434 23.934919194504 37.074103446153 46.414737760164 23.957643836444 37.106724539183 
46.387799711861 23.972653527253 37.127432571826 46.368096391037   23.9830654571  37.14280532218 46.337829711559 23.999439118057  37.16626811421 
46.321761574651 24.008643197897 37.178519904713 46.310228012979 24.015238177749 37.187318769563 46.275912764876 24.033733002198 37.213947584466 
46.232864003352 24.056070542931 37.247698799911 46.230377920797 24.057315252196 37.249666031092 46.227621065278 24.058617035942 37.251878867267 
46.185187643313 24.079971165037 37.285412828917 46.145892960756 24.098004919262 37.317161459566 46.138600919112  24.10155904641 37.322970281964 
46.128738288852 24.105730393877 37.331080659619 46.090539693239  24.12173872472 37.362551592309 46.060454967206 24.131885919889 37.388320293886 
46.041729783154 24.138702708953 37.404159058259 46.018997868178 24.144029661163 37.424564269316  45.99216193428 24.150623529374 37.448531572759 
45.969700361417 24.153714302772 37.469561735335 45.944511573708  24.15764058155 37.492961541451 45.914364013383 24.158368223461 37.522553809711 
45.901327342588 24.158921649583 37.535255012833 45.890615771851 24.157557312284 37.546417308171 45.861362333224  24.15439291502 37.576677421056 
 45.83611052759 24.146337834928 37.604923920236 45.824348606263 24.142770771684 37.618006904223 45.808580338718 24.133713744234 37.637253228435 
45.790318246679 24.123845577918 37.659295370284 45.781489889849 24.116040059745 37.671162991319 45.759882090338 24.096324677763 37.700453512703 
45.744626673788 24.073870102741 37.724541210693  45.73428029462 24.058568165115 37.740906888873 45.720251314829 24.023895047674 37.768657857382 
45.714587180516 24.010259252659 37.779717107012 45.704988095886 23.968212490778 37.806021421902  45.70098307175 23.952259071511 37.816361572082 
45.695959214044 23.908330966654 37.838882068869 45.693089817973 23.888291247005 37.849728247757 45.691643739992 23.843964693123 37.868861486118 
45.690383747409 23.824446447368  37.87790416681 45.692272623916 23.775146940455  37.89571746653 45.692152712954 23.761320854067 37.901357163798 
45.695862097394 23.706681789701 37.919498059693 45.695993328723 23.698883935227 37.922481710878 45.700390534772 23.640803174081 37.941315115443 
45.700457959637 23.638123808666 37.942318169366 45.702552075978 23.607135966165 37.952616074024 45.704485076642  23.57867516393 37.962064617175 
45.704728877424 23.576101715385  37.96285055078 45.707439884686  23.52070250568 37.982284587218 45.708014401823 23.512278111167   37.9850790265 
45.709339884595 23.464282263075 38.002930213728 45.709949607249 23.448719100989 38.008540309402 45.710091413458 23.409175893497 38.024189588619 
45.710452594249 23.384300150123 38.033764613208 45.709991446932 23.355108545224 38.045878094061 45.709808680689 23.316900399976 38.061315997135 
45.709337681529 23.301920879827 38.067764272552 45.708279447856 23.260525381386 38.085342684418 45.708029165025  23.24840268984 38.090431432911 
45.707944900376 23.242987111969 38.092677430348 45.705960734784 23.193676903406 38.114334034348 45.704625591137 23.153798316122 38.131581212777 
45.703738140191  23.13711160354 38.139123975105 45.702083288422  23.10087940534  38.15523202909 45.701096059956 23.079484890557 38.164753546426 
45.700758483282 23.071153805045 38.168414811138 45.697958544697 23.021715000007  38.19093137378 45.696576209768  22.99375380857  38.20346664137 

POLYGONS 1 298
297 0 1 2 3 4 5 6 7 8 9 10 11 12 13 14 15 16 17 18 19 20 21 22 23 24 25 26 27 28 29 30 31 32 33 34 35 36 37 38 39 40 41 42 43 44 45 46 47 48 49 50 51 52 53 54 55 56 57 58 59 60 61 62 63 64 65 66 67 68 69 70 71 72 73 74 75 76 77 78 79 80 81 82 83 84 85 86 87 88 89 90 91 92 93 94 95 96 97 98 99 100 101 102 103 104 105 106 107 108 109 110 111 112 113 114 115 116 117 118 119 120 121 122 123 124 125 126 127 128 129 130 131 132 133 134 135 136 137 138 139 140 141 142 143 144 145 146 147 148 149 150 151 152 153 154 155 156 157 158 159 160 161 162 163 164 165 166 167 168 169 170 171 172 173 174 175 176 177 178 179 180 181 182 183 184 185 186 187 188 189 190 191 192 193 194 195 196 197 198 199 200 201 202 203 204 205 206 207 208 209 210 211 212 213 214 215 216 217 218 219 220 221 222 223 224 225 226 227 228 229 230 231 232 233 234 235 236 237 238 239 240 241 242 243 244 245 246 247 248 249 250 251 252 253 254 255 256 257 258 259 260 261 262 263 264 265 266 267 268 269 270 271 272 273 274 275 276 277 278 279 280 281 282 283 284 285 286 287 288 289 290 291 292 293 294 295 296 

CELL_DATA 1
FIELD FieldData 6
ClosedSection 1 1 int
1 
SectionArea 1 1 double
        6.05281 
SectionLength 1 1 double
        9.01581 
SectionMinSize 1 1 double
        1.19497 
SectionMaxSize 1 1 double
        1.74475 
SectionShapeFactor 1 1 double
       0.684894 
