# vtk DataFile Version 4.2
vtk output
ASCII
DATASET POLYDATA
POINTS 537 double
27.808277878144 24.616772755938 32.747172256881 27.822078085636 24.620808980591 32.740448918398 27.878719720378 24.636729670135  32.71234556485 
27.883505035013 24.638122205316 32.710008651962   27.9246944798 24.649389659146 32.689328139705 27.946884921632 24.655419006072 32.678154520798 
27.949129225709 24.655974303235 32.676981551097 28.000437738521  24.66936602258 32.650713780181  28.01248678787  24.67250201841 32.644538214367 
28.013103809974  24.67267416277 32.644231059714 28.069154465993 24.687097552049 32.615373367616 28.083367176429 24.690952629001 32.608211568632 
28.120999881453  24.70045577627 32.588694090948 28.151821057928 24.708554279666 32.572957502588 28.168705410006 24.712567306148 32.564003496582 
28.198847474214   24.7201466114 32.548345494656 28.215467856475 24.724252727031 32.539654102549 28.224227665238 24.726502996461 32.535141065782 
28.263815825036 24.735822478799 32.514076309726 28.289107758142 24.742063354483 32.500844294377 28.318572171092 24.748912275362 32.485097641088 
28.347011100328 24.755925600956 32.470215994612 28.393584310637 24.767864496725 32.446201817345 28.399225665913 24.769302250395 32.443286407428 
28.410005146978 24.772233972373 32.437860816665 28.451921351418  24.78313638102 32.416371696474 28.471027640673 24.788652332805 32.407006487002 
28.503695106284 24.798203133301  32.39108832533 28.536404808455 24.808799855681 32.375962937325 28.556939323994 24.815556844739 32.366549804399 
 28.59822976208 24.830385627641 32.348599377486 28.611586054701 24.835251883901  32.34284766203 28.657348187168 24.853592283921 32.324452876624 
28.666584754738 24.857357052775 32.320789648713 28.714663365495 24.879086190395 32.303399851608 28.721467202792 24.882229410036 32.300992624961 
28.770486175685 24.907562136894 32.285764047689 28.775870936037 24.910441053429 32.284166807083 28.825457340875  24.94030488012 32.272096861373 
 28.82934481092 24.942750062934 32.271232382381 28.879749061519 24.977886868779 32.262725244278 28.881616765943 24.979267987334 32.262472295847 
28.909590543205 25.001939696004 32.260246449049  28.93164333043 25.019657228922 32.258369414194 28.933015190401 25.020821493125 32.258301509752 
28.980382655824 25.064354596649 32.258580147245 28.986310074271 25.069954685434 32.258735015167 29.027725015077 25.111890751372 32.262026933982 
29.040185306471  25.12469122262  32.26316167325 29.072294788287 25.160351223997  32.26819001388  29.10080899545 25.194119876432 32.274309058061 
29.109682203278 25.204727188526 32.276291120113 29.121731592874 25.219481455921 32.279258129621 29.146740438946 25.248431934227 32.284100157945 
 29.16738473119 25.272831589218 32.288491900182 29.183549292628 25.291959588248 32.291948730458  29.19924222849 25.311182555712  32.29581861543 
29.220633306703 25.335572285131 32.299666839745 29.255195761937 25.377053362957 32.307516345351 29.260275945642 25.382959885969 32.308520121063 
 29.26240438813 25.385518790687 32.309006972734 29.302690213099 25.429451426425 32.314680032919 29.315636183438 25.443823612426 32.316703206899 
29.343574817065 25.472664875172 32.319357605707 29.362930250935 25.492827779528 32.321339865414 29.381173487118 25.510950114952 32.322514166268 
29.400094561338 25.529232197046  32.32332792997 29.436315668419 25.566049490561 32.326317508112 29.439936009487 25.569509142211  32.32644297476 
29.444559468819 25.574429530903 32.326998358667 29.481544300844 25.610829928797 32.329112008912   29.5176418201 25.649787627524 32.333874601649 
29.523357636132 25.655407250575 32.334196634818  29.52826894195 25.660709851883 32.334846308275 29.566252914562 25.698193385448 32.337095581599 
29.604488490897 25.739564026725 32.342223266302 29.606645537433 25.741705161056 32.342360840896  29.60934351574 25.744636694006 32.342732369902 
 29.64873504545  25.78362447469 32.345155675745 29.677118411799 25.814345909341 32.348970617644 29.689039057539 25.826243052619 32.349781611893 
29.704016138871 25.842562940766 32.351880481896 29.729654267203 25.867992084014 32.353500034146 29.748735333212 25.888678877364 32.356091378078 
29.769632848762 25.909644224543 32.357598894998 29.794124010274 25.936356472513 32.361050943702 29.808954768268 25.951196602396 32.362090305882 
29.820745864434 25.964158238584 32.363831918816 29.848483460039 25.992253565767  32.36604352984 29.878018548234 26.025177314875 32.370765361068 
  29.8866606176 26.034056347194 32.371553187287 29.894227430614 26.042603615302 32.372851272263 29.925506041402 26.075249786944 32.376103951715 
29.955900559112 26.110043677184 32.381680949597 29.962973494411 26.117407614077 32.382402113679 29.969668263166 26.125165105999 32.383704257703 
30.001119304278 26.159066582506 32.387821086986 30.028215495678 26.192056369089 32.394344428761 30.037343339125 26.202038633856 32.395651956531 
30.046779547128 26.213887930318 32.398207510652 30.073895825217 26.245168027715 32.403371029731 30.094763734615 26.272900463655 32.410225040637 
30.109034749747 26.289841597495 32.413319287152 30.125153334224 26.312416173265 32.419521329359 30.143900560133 26.335909514878 32.424560723406 
30.156275969089 26.354205931243 32.430081302259 30.178730732881 26.384029212926 32.437442341441 30.208945590288 26.433555905526  32.45474197001 
30.209802151107  26.43480796544 32.455112805054 30.210139111075 26.435459626797 32.455383901558 30.237563740039 26.488102558225 32.477137377395 
30.244003420008  26.50395015338 32.484988891249  30.25930393205 26.545230748653  32.50649819116 30.266223445584 26.567363794037 32.518951734255 
30.275641501594 26.601543381491 32.539092787384 30.281456419418 26.626863885388 32.554847033811 30.286945525703 26.656092532408 32.573910454129 
30.291409029412 26.683239261353 32.592071257493 30.294449949658 26.709675746748 32.610693636355 30.296963729165 26.737074704023 32.630451562173 
30.297738652638 26.760878018447 32.648627321292 30.298016060189 26.786299375598 32.668433267351 30.296469801981  26.80829460227 32.686851280135 
30.294434592003 26.829533348767 32.705024742234 30.290726557201 26.852952000362 32.726113648395  30.28889811972 26.866752313967 32.738285222278 
30.283749976728  26.88875554863     32.75929335 30.280628766928 26.906089567303 32.775173089145 30.275344926871 26.922391256116 32.791791815737 
30.269665351421 26.944381647021 32.813171059501 30.264183177966 26.961012495429 32.830191087678 30.257656790868 26.982883947343  32.85208419484 
30.249055465914 27.008706919714 32.878575347324 30.246012264652 27.019655816354 32.889374453835 30.242691250276 27.029982786988 32.899883434604 
30.235614863192 27.056632857241 32.925931544338 30.228660213318 27.079036236024 32.948550457572 30.224445157633 27.094606430448 32.963826853147 
30.218939579281 27.111935895504 32.981413436417 30.213567933693 27.133261126526 33.002048349301 30.208422997815 27.150741078385 33.019494648846 
30.202731122988 27.172472738954 33.040679111729 30.195152104228 27.197196149852 33.065571629626 30.191557969925 27.211982971235 33.079786143735 
30.187948308775 27.224646288775 33.092340737477 30.180440010915 27.252047331127 33.119289644437 30.170601176148 27.282095035099 33.149993112266 
30.168089834293 27.291625420177 33.159294413498 30.165374030566 27.299965927423  33.16780602953  30.15517634184  27.33087615257 33.199445669078 
30.142717257571 27.363227922571 33.233841922886   30.1408350996 27.369215412482 33.239903852218 30.138841566928 27.374696185008 33.245646922808 
 30.12703268807 27.407770919539 33.280145677334 30.113418142874 27.442116156098 33.316939529122 30.112199547675 27.445819055123 33.320727627975 
 30.11091253667 27.449312641532 33.324400089598 30.098703964832 27.484867941232 33.361137606462 30.084743983309 27.521440477737 33.399931996406 
30.084064987784 27.523495728229 33.402036421696 30.083320559872 27.525474282822 33.404127430274 30.070481194046 27.563052485181 33.442909339412 
30.055476053083 27.600636564677 33.483249492943 30.055181384262 27.601470195804 33.484116886856  30.05484801995 27.602250879351 33.484970372711 
30.040390474913 27.640011385287 33.525056544196 30.023581258056 27.676698344437 33.565984877128 30.007019535924 27.713081515646 33.606496608413 
29.988733638932 27.746996612947 33.646302964422 29.988526397229 27.747406539729 33.646774214873 29.988293484155 27.747797053971 33.647248604291 
29.969897571134 27.781275481657 33.686790249923 29.949828742946 27.812679582091  33.72589960197 29.949476963755 27.813251181207  33.72660176198 
29.949095307785 27.813794428035 33.727303042712 29.928847554875 27.844902062011 33.766307446764 29.907096189505 27.874395195277 33.805119961281 
 29.90669077765 27.874958216663 33.805853844586 29.906259599803 27.875495034097 33.806585590339 29.884432499703 27.904751909744 33.845266513904 
29.861137354954 27.932681089441 33.883955729929 29.860809271953 27.933079973585 33.884504976089 29.860465463657 27.933456092279 33.885047587876 
29.836873499805 27.960903642816 33.923570716546 29.811569935533  27.98722067539 33.962432018658 29.811449027937  27.98735370784 33.962623439592 
 29.81131581881 27.987485044546 33.962822350593 29.785303316172 28.013242268163  34.00175167685 29.759296763922 28.036390340221 34.038623503064 
29.757578705643 28.038004559729 34.041126237821 29.755628102932 28.039666492534  34.04383333564 29.728787753444 28.062406998798 34.080982558956 
29.703592083599 28.081830119656 34.114341405599 29.698933978107 28.085607726082 34.120655628068 29.693969277572 28.089270741591 34.127099611034 
29.668588255008  28.10783479462 34.159915390345 29.641679660379 28.125809250778 34.193362999801  29.63750332927   28.1287313173  34.19865836735 
  29.6331552966 28.131531431622 34.203980936667 29.606095161779 28.148816149742 34.236994474828 29.578643578803 28.164921422291 34.269360671966 
29.573554407731 28.168035091516 34.275461644336 29.567824550433 28.171257993174 34.282108171946 29.540023003889 28.186787196275 34.314272086602 
29.513059838602 28.200672499344 34.344540946456 29.505160328584 28.204892372915 34.353528426773 29.496095724367 28.209360126579 34.363546753189 
29.469307888092  28.22244027417 34.393056236052 29.442652194065 28.234475352327 34.421648525379 29.432464784819 28.239229665787 34.432697800138 
 29.42225496351 28.243635245966 34.443488721928 29.394922946964 28.255301446094 34.472275888556 29.364401090079 28.267361889321 34.503661531665 
29.356781655641 28.270474191187 34.511576513227 29.350184272227 28.272973868818 34.518276230986 29.318225092839 28.284987881411 34.550656399971 
29.281028660115 28.297944152803  34.58753501028 29.279711869747 28.298419192014 34.588853435032 29.278597656545 28.298791294887  34.58994553683 
29.241436459346 28.311191283829 34.626361113039 29.206908283584 28.321837333553 34.659507655118 29.203423009952 28.322913106627 34.662854380252 
29.199658473439 28.323989701152  34.66640208113 29.165433421353 28.334183602482 34.698975366148 29.132549472241 28.343213691256  34.72967076621 
29.127263688457 28.344676721777 34.734613834131   29.1217867184 28.346071438107 34.739640290788 29.088896698792 28.354824156835 34.770121773448 
29.057020449806 28.362577892114 34.799089892837 29.050234006796  28.36424711468 34.805271718767 29.042944601483 28.365875708914 34.811782373024 
29.011504989586 28.373224627431 34.840118706362 28.982833378644 28.379253114341  34.86543032009 28.972551871778  28.38145008246  34.87453463238 
28.960069297298 28.383825370318 34.885358207174 28.933389172958 28.389165598408 34.908699612717  28.91155466704 28.393011816017 34.927389323897 
28.893682141126 28.396212549048 34.942728953364 28.867636947663 28.400279940336 34.964613251779 28.853202666467 28.402660209567 34.976840804008 
28.843061155627 28.404089227811 34.985240363811 28.811953367926 28.408560859237 35.011074426313 28.774462450511 28.413062324663 35.041510906311 
28.769567947351 28.413654400414 35.045487904548 28.761500826153 28.414429388618 35.051884721453 28.726686893453 28.418050062181 35.079707740077 
28.705499238317 28.419684594471 35.096192981037  28.68324191907 28.421403960075 35.113512304148 28.643879530855 28.423369340646 35.143295551493 
28.639526009573 28.423618696058 35.146614777733 28.637075567756  28.42368797308 35.148427119416 28.595787755911 28.424876003163 35.178979846041 
28.568792136972  28.42492613544 35.198384612522 28.552116013485 28.424977154699 35.210387383721 28.523209203121 28.424371253174 35.230646888296 
28.508583205633 28.424156708891 35.240970019843 28.500074156549 28.423835250361 35.246821022029 28.464909685806  28.42259813174 35.271072734682 
28.431309025618 28.420739468826 35.293713532662 28.420843381801 28.420175162512 35.300776993377 28.402252150872 28.418742724323 35.312986183565 
28.376166067898 28.416898954948 35.330248117479 28.361562755593 28.415504694854 35.339626616662 28.330215862421 28.412557027174 35.359793698686 
28.288927888093 28.407535553638 35.385460068881 28.283016866302 28.406819404048 35.389136779345 28.269603670818 28.404770447805 35.397146344831 
 28.23452514509 28.399697726048 35.418318036141 28.220383139677  28.39734213542 35.426609112463 28.184481580853 28.391198161913   35.4475282018 
28.157390669864 28.386218313322 35.463043060293 28.134228014053 28.381887485541 35.476250720612 28.097945414824   28.3747070342 35.496627509176 
28.084005025727 28.371842545321  35.50437348635 28.040862569741 28.362542917872 35.528003542383 28.033448495728  28.36084864161 35.531988746146 
27.985372230073 28.349485005723 35.557533832515 27.981754525558 28.348569090574 35.559408228693 27.930403827225 28.335327948837 35.585824756128 
27.927968688281 28.334652772739 35.587040284404 27.874912173226 28.319955870229 35.613534891537 27.871143101119 28.318840305897 35.615360760462 
27.818711690483 28.303550859074 35.640940655148 27.811110937667 28.301188694673 35.644534188751 27.761652894274 28.286118679175  35.66815381561 
27.748794808672 28.281915370106  35.67406983816 27.706068442525 28.268402396975 35.694085784695 27.687095172233 28.261917604637 35.702593158862 
27.652769829137 28.250420158071 35.718168716399  27.62908182571 28.241958162437 35.728502276247 27.604145340679 28.233100298825 35.739419912571 
 27.58166310842 28.224781897989 35.749001511804 27.540409903503 28.209111287121 35.766262765974 27.530477268186 28.205173784637 35.770289388238 
27.506927683189 28.195678635846 35.779710629659 27.478812267175 28.184541820065 35.791115286896 27.463747283948 28.178494720636 35.797163485794 
27.425671848134 28.162717684764 35.812061416793 27.389999903566  28.14767412972 35.825812404009 27.373142777533 28.140314666882 35.832113452988 
27.320637965932 28.116765122859 35.851245845939 27.320290260875 28.116603555655 35.851368129454 27.318988995446 28.115976303439  35.85180798617 
27.267082184189 28.091286888853 35.869614399851 27.253824740567 28.084846946213 35.874056817751 27.213650633549 28.064446810241 35.886822153959 
27.189472420379  28.05196972387 35.894347752265 27.159863302049 28.035888848584 35.902933266042  27.12771017983 28.018014800141 35.911932611878 
27.105213636856 28.004707880898  35.91759883938  27.06862582077 27.982525689598 35.926389187749 27.049402363344 27.970056197451 35.930366466635 
27.011457120753 27.944911262145 35.937799079684 26.992280965993 27.931291165457 35.940836975513 26.955868439073 27.905019749188   35.9462836277 
26.933557682441 27.887734127765 35.948685603071 26.901234429101 27.862391629929 35.951929811597 26.872141644727 27.837973836088 35.953584323733 
26.847606413444  27.81727849268 35.954898798626 26.810667174862 27.783934093295 35.955157312746 26.795342747889 27.769974489404 35.955165000495 
26.753018107138 27.729185789435 35.953428557151 26.744610482857 27.721001734876 35.953019453693 26.699016710101 27.674485530874 35.949120952357 
26.697050111588 27.672466073128 35.948942511325 26.684336916811 27.658837265617 35.947337345947 26.652778218047 27.625210752602 35.943514123187 
 26.64782456794 27.619716326898 35.942743872172 26.613122224924 27.581422862561 35.937503158321  26.59956291936 27.565858663844 35.934981924557 
26.579591784375 27.543083571144 35.931385716957 26.556874058032 27.516370553245 35.926660888098 26.547527821408 27.505408792313  35.92473922536 
26.527352428692 27.480963921585 35.919975536073 26.512662132657 27.463350892133 35.916653322967 26.506670640694 27.456026019235 35.915187125978 
 26.47622887799 27.418663920327 35.907623007155 26.454741275294 27.391734224947 35.901845237717 26.440035415258 27.373312228534 35.897897585393 
26.413626444836 27.339578731592 35.890296014054 26.403953130615 27.327396714485 35.887648718778 26.397810517421 27.319452051246 35.885803194213 
26.367085714883 27.279866465509 35.876692375479 26.333149396382 27.234475935526 35.865317227485 26.328445209369 27.228274335526 35.863811524151 
26.321513285511 27.218575763923 35.861152000734 26.288931095954 27.174310917605 35.849691307299 26.275412334245 27.154692132188 35.843950294995 
 26.24587464319 27.110097153431 35.830045836985  26.23816943525 27.098451677859 35.826408943131 26.219214438187 27.068168646471 35.816175552265 
 26.20503211514 27.046073154483 35.808961539902 26.198972963081 27.035877766825 35.805284971641 26.174266004892 26.994995955516 35.790837205689 
26.150913697673 26.953072382132 35.774597881863 26.145336430269 26.943259689618 35.770876789527 26.137990101695 26.929123204356 35.765022191839 
26.116868011262 26.891205955617  35.75033573662 26.103464688085 26.864878903312 35.739232947412 26.089952904087 26.838889977833 35.728474046291 
26.073882565579 26.804684577868 35.713084697329 26.064492429273 26.786682831349 35.705654518096 26.058456987055 26.773835656934 35.699874158932 
26.039633387173 26.734733913303 35.682606760835 26.018458505261  26.68451308046 35.658276060083 26.018126439101 26.683738535635 35.657904751757 
26.017765697722 26.682749059008 35.657384876345 25.995787684642 26.633318963909 35.634252560843 25.980523799848 26.594774521652 35.614870159729 
 25.97601156023  26.58355186024 35.609275516128 25.972156318674 26.572063423983 35.603000427353 25.955116039425 26.533651860289 35.584996890088 
25.939272818608  26.49161234858 35.563279684917 25.935605188633 26.482175808237 35.558484720719 25.933036305508 26.474514692752 35.554298713303 
25.912768735245 26.428910613124 35.532950234905 25.892347926247 26.377793209642 35.507373057293 25.889253284647  26.37174787199 35.504835714297 
25.885995373235 26.364927792129 35.501805821533 25.861337006453 26.316032583034 35.481017178875 25.840020379082 26.270244144048 35.460276163172 
25.836427356032 26.262345832326 35.456638164933 25.808330948523 26.211282659519 35.436609756297 25.806478901243 26.208046241874 35.435391474101 
25.806212622408 26.207674739049 35.435290140896 25.800682349596 26.199199640715 35.432587936061 25.770950410761 26.154241811115 35.418537281889 
25.769570584004 26.151910074219 35.417692176699 25.734497859731 26.101963979245 35.403547298219 25.730819992969 26.095816063954 35.401347610085 
25.699173650014 26.048590595438 35.386885770878  25.69363823242 26.038123985143 35.382620067068  25.66939996677 25.995920961614 35.366796376823 
25.661566205282 25.978496434347 35.358703965406 25.645238911955 25.944048644755 35.343308198289  25.63535859243  25.91726658061 35.329320116771 
25.626127770487 25.893565996905 35.317291041408 25.614227353339 25.855810357633 35.296116592058  25.61024833834 25.843775167594 35.289500032755 
25.595843379019 25.794506110371 35.261061911048  25.59575922714 25.794227030207 35.260902659599 25.595491605203 25.793148020405 35.260245528177 
25.581563384034 25.744295789945 35.231793433593 25.579066520939  25.73299718408 35.224693295701 25.570811090135 25.694720944463 35.200494435859 
25.566986644984 25.667933328949 35.182157802407  25.56354657652 25.644466130079 35.166158386823 25.560375003065 25.597070769867 35.131136469193 
25.560103695448 25.593361324874 35.128412001341 25.560104332381 25.587774738949 35.124015266911 25.555450460536 25.544116221358 35.092997327089 
25.554865746044 25.508334404058 35.065258823634 25.554134535118 25.499461899302 35.058801277411 25.553718502291 25.493803513101 35.054646939045 
25.547183809942 25.454373670469 35.028305896857  25.54400190186 25.438624985306 35.018195255015 25.535799216206 25.405436832357 34.997962549656 
25.531187512109 25.387499213486 34.987155024851 25.521714712277 25.352754890444 34.966608832269  25.51738450192 25.336344934924 34.956801548925 
25.507517851737 25.296891991688 34.932832509065  25.50477208105  25.28470138607  34.92520897968 25.496221691926 25.239020564767 34.895394787064 
25.495490118948 25.234187224917  34.89211605901 25.493933703648 25.211394190025 34.875295927174 25.490912589757  25.18408456915 34.855972239735 
25.490885089253 25.178773977748 34.851812879333 25.493336769198 25.136379653509 34.816692607156 25.497301706642 25.116309870786 34.798054752449 
25.504687272206 25.090962369186 34.772809889724 25.520128547194 25.067202176225 34.743035369355 25.526068805893 25.053755000892 34.728192075949 
25.539807139098 25.036439693496 34.704710864571 25.550680246655 25.021916048774 34.685481879537 25.558484122787 25.014837368793  34.67431330866 
25.577198212712 24.993326660399 34.643961230618 25.602894546926 24.971802816449 34.608590100637 25.606226194672 24.968370800746 34.603499370327 
25.612399446844 24.963021175282 34.594861180808  25.63500453291 24.942704778306   34.5626577404 25.648901527324 24.931447549687 34.543830024899 
25.664224907631 24.917112573349 34.521557104992 25.693090768695 24.891308076407 34.480543720167   25.7206255874 24.864151847713 34.439421434564 
25.735354350611  24.85020584672 34.417881161558 25.747932309491 24.837387593038 34.398771232039 25.770568313509 24.815305737206 34.365156312044 
25.775082430677 24.810727331018 34.358315202638 25.777715254019  24.80820070483 34.354438256531 25.801806544697 24.783664409797 34.317847903168 
25.819719028399 24.766382009902  34.29139825968 25.829161796729 24.756763708733 34.277055513297 25.848975902479 24.737632319767 34.247786707243 
25.857203574396 24.729457600528 34.235451615158 25.861391524343   24.7255847993 34.229399746836 25.885677019187 24.701884583989 34.193328021082 
25.904532873865 24.684829302976 34.166380377827 25.915372701589 24.674504583397 34.150479545392 25.937313524682 24.655262373874 34.119597929463 
25.945808506439 24.647645976512 34.107510445361 25.950429642856 24.643907624991 34.101253633711 25.976734971338 24.621371383812 34.064648951135 
25.998612321274 24.604436697461 34.035628737422  26.00861648666 24.596249982878 34.022009837644 26.028098958587 24.581879213082 33.996725224958 
26.041179921141 24.572053577927 33.979609460535 26.048643548347 24.567090642977 33.970349920212 26.074570767715 24.548863529774 33.937407476046 
26.103083185738 24.531343863517 33.903167253269 26.109386520602 24.527254038467 33.895427129372 26.119076229633 24.521848849681 33.884222683731 
26.145346194288 24.506954552709 33.853657079394  26.16605413223 24.497118232468 33.831061693336 26.183071069802 24.488574601403  33.81213130933 
26.204071679197 24.479781838792 33.790147186877 26.222385316063 24.472059845237 33.770933190178 26.240445975416 24.465811353174 33.753060216222 
26.263127748643 24.457446999448 33.730207240127  26.28584251972 24.450672270197 33.708581523446 26.305516647976 24.444884612467 33.689913773533 
26.330195196919 24.439283326318 33.667802763117 26.349654021457 24.434458017468 33.650046766983 26.365252784495 24.431420525346 33.636466681936 
26.395191155209 24.425937495646  33.61067559682 26.441355870601 24.419319922702 33.572351727005 26.441556898577 24.419287840528 33.572182272952 
26.441685909771 24.419271766302 33.572077077368 26.488753305974 24.413906053144  33.53409080092 26.514754313646 24.411591472916 33.513617546794 
26.536525550226  24.40991163282 33.496678019224 26.585094004181 24.407185604917 33.459692218079 26.585247656183 24.407179083091 33.459576863517 
26.585682072497  24.40716875468 33.459257107054 26.635085569531 24.405685455315 33.422650233529 26.651186964019 24.405499797439 33.410953792576 
26.686196165966 24.405696922175 33.385995054914 26.714515847739 24.406276393233 33.366135928168 26.738508036832 24.407287555261 33.349720842188 
26.775456738616 24.409288857533 33.324790573366 26.791585661919 24.410417475553 33.314108633729 26.834486574961 24.413851944849 33.286036352965 
26.845095934248 24.414814711349 33.279183360003 26.892608356437  24.41952425471  33.24880641156   26.8990676827 24.420201121645 33.244705461834 
26.950502092925  24.42594795448 33.212331352984 26.953297344015 24.426263467142 33.210574466562 26.989983787119 24.430737373715 33.187778106857 
27.007123441684 24.432802321891 33.177107949393  27.00844670882 24.432975463831 33.176294954677 27.060805165372 24.439894899894 33.144180742909 
27.066677969831 24.440758360106  33.14064737148 27.114104709293 24.447635304994  33.11203749073 27.123584545923 24.449173260986 33.106447397688 
27.167394715262 24.456116546193 33.080484070133 27.178648999864 24.458047699793 33.073930497071 27.222674247022 24.465619237697 33.048307277132 
 27.23295713287 24.467531791508 33.042435900452 27.281093047486  24.47663667207  33.01507053226 27.288277121731 24.478095165934 33.011064773585 
27.342238767557 24.489332769224  32.98119862851 27.344809447885 24.489904020421 32.979804087484 27.357670589562 24.492895419939  32.97293217915 
27.398630362909 24.502215715541 32.950884135672 27.408502414011 24.504630330487 32.945702560683 27.448811581309 24.514740878307 32.924743106437 
27.478674795903 24.522500053196 32.909426683001 27.497919564913 24.527664213922 32.899685298492 27.543205234881 24.540174564848 32.877044436501 
 27.54711630666 24.541292157659 32.875118300345 27.562631664618 24.545772557447 32.867514134905 27.598048515907 24.555857770145 32.850044247991 
27.607003076797 24.558394752073 32.845617129697 27.651026243376 24.571365018243 32.824243848105 27.672245209464 24.577457620716 32.813816895602 
27.706098165371 24.587531869755 32.797460241845 27.739637315738  24.59708757163 32.780920633905 27.763197006575 24.604033868163 32.769486363132 

POLYGONS 1 538
537 0 1 2 3 4 5 6 7 8 9 10 11 12 13 14 15 16 17 18 19 20 21 22 23 24 25 26 27 28 29 30 31 32 33 34 35 36 37 38 39 40 41 42 43 44 45 46 47 48 49 50 51 52 53 54 55 56 57 58 59 60 61 62 63 64 65 66 67 68 69 70 71 72 73 74 75 76 77 78 79 80 81 82 83 84 85 86 87 88 89 90 91 92 93 94 95 96 97 98 99 100 101 102 103 104 105 106 107 108 109 110 111 112 113 114 115 116 117 118 119 120 121 122 123 124 125 126 127 128 129 130 131 132 133 134 135 136 137 138 139 140 141 142 143 144 145 146 147 148 149 150 151 152 153 154 155 156 157 158 159 160 161 162 163 164 165 166 167 168 169 170 171 172 173 174 175 176 177 178 179 180 181 182 183 184 185 186 187 188 189 190 191 192 193 194 195 196 197 198 199 200 201 202 203 204 205 206 207 208 209 210 211 212 213 214 215 216 217 218 219 220 221 222 223 224 225 226 227 228 229 230 231 232 233 234 235 236 237 238 239 240 241 242 243 244 245 246 247 248 249 250 251 252 253 254 255 256 257 258 259 260 261 262 263 264 265 266 267 268 269 270 271 272 273 274 275 276 277 278 279 280 281 282 283 284 285 286 287 288 289 290 291 292 293 294 295 296 297 298 299 300 301 302 303 304 305 306 307 308 309 310 311 312 313 314 315 316 317 318 319 320 321 322 323 324 325 326 327 328 329 330 331 332 333 334 335 336 337 338 339 340 341 342 343 344 345 346 347 348 349 350 351 352 353 354 355 356 357 358 359 360 361 362 363 364 365 366 367 368 369 370 371 372 373 374 375 376 377 378 379 380 381 382 383 384 385 386 387 388 389 390 391 392 393 394 395 396 397 398 399 400 401 402 403 404 405 406 407 408 409 410 411 412 413 414 415 416 417 418 419 420 421 422 423 424 425 426 427 428 429 430 431 432 433 434 435 436 437 438 439 440 441 442 443 444 445 446 447 448 449 450 451 452 453 454 455 456 457 458 459 460 461 462 463 464 465 466 467 468 469 470 471 472 473 474 475 476 477 478 479 480 481 482 483 484 485 486 487 488 489 490 491 492 493 494 495 496 497 498 499 500 501 502 503 504 505 506 507 508 509 510 511 512 513 514 515 516 517 518 519 520 521 522 523 524 525 526 527 528 529 530 531 532 533 534 535 536 

CELL_DATA 1
FIELD FieldData 6
ClosedSection 1 1 int
1 
SectionArea 1 1 double
        19.8423 
SectionLength 1 1 double
        16.1176 
SectionMinSize 1 1 double
        2.17004 
SectionMaxSize 1 1 double
        2.84706 
SectionShapeFactor 1 1 double
       0.762202 
