# vtk DataFile Version 4.2
vtk output
ASCII
DATASET POLYDATA
POINTS 414 double
29.166776343693 31.366453863607 32.537970915247 29.168047536528 31.366152286469 32.538430836954 29.170043117196 31.365677065786 32.539230623998 
29.214447705939  31.35506560089 32.558639417878 29.244226715183 31.347918888256 32.572974426088 29.261025894262 31.343869006394 32.581852829124 
29.286969783571 31.337599865125 32.596202389313 29.308961233417 31.332265670228 32.609240486904 29.321835653056 31.329131910456 32.617350013375 
29.356609594596  31.32062569758 32.641074214238 29.396046013204 31.310949423942 32.669263294867 29.404665171579 31.308819419637 32.676083541599 
29.421765958252  31.30459405026 32.689586871953 29.451646510078 31.297180451857 32.714507771706 29.464925914954 31.293892161757 32.725303476798 
29.497973703181  31.28565371464 32.754561821316 29.525980598994 31.278700621692 32.778109636421 29.544973250912 31.273974182726 32.794567400623 
29.581628714954 31.264883850304 32.824957312359 29.592371464013 31.262219748718 32.833862275966  29.63450763568 31.251806829182 32.867206065779 
29.640447495418 31.250339971123 32.871861625944 29.686019962049 31.239126619579 32.905805948995 29.689247328296 31.238333745517 32.908156090721 
29.736825246478 31.226681648094 32.941217244519 29.738724952933 31.226217252095 32.942500272131 29.787644084741 31.214298340222 32.973814533584 
29.789169004844 31.213927830663 32.974745921743 29.839260514056  31.20180366924 33.003317612603 29.841067495915 31.201368002857 33.004274609659 
29.892397134929  31.18904081145 33.029353323816 29.894900483122 31.188442333649  33.03045824485 29.947623257197 31.175887775267 33.051559719774 
29.951080028043 31.175068550584 33.052773117738 30.005083088693 31.162322093631 33.069478682616  30.00954438538 31.161274450554 33.070625605391 
30.064777963153 31.148361125894 33.082342706494 30.070054548918 31.147133827095 33.083186617956 30.126412217514 31.134087640412  33.08949626297 
 30.13208817631 31.132780791291 33.089824391325 30.189267154922 31.119681089792  33.09029048855 30.194758381031 31.118430233963 33.090023122715 
30.253248964308 31.105178386212 33.084054637537 30.257772837249 31.104159722778 33.083320054647 30.317778928377  31.09071103009  33.07083107726 
30.320754542991 31.090048626185 33.070016371226 30.382018138673 31.076467397485 33.050778848963 30.383365327458 31.076170907961   33.0502618701 
30.446568184983 31.062320189696  33.02344553803 30.446846296407  31.06225963648 33.023310416162 30.455665574786 31.060346425349 33.018720911201 
30.509370739914 31.048695116205 32.990806627211 30.511109690594  31.04831929774 32.989839946424  30.56704336272 31.036298505353 32.955814630394 
30.580569306094 31.033408131917 32.946869336859  30.61970291399 31.025070287668 32.919917197683 30.656021602722 31.017369085612 32.893300810111 
30.668457735514 31.014739576427 32.883860499171 30.690764214295 31.010047827232 32.865851939287  30.71360656418 31.005244373863 32.847367037261 
30.725280924028   31.0028036218 32.837302026243 30.756032694041 30.996383563571 32.810389865398 30.787612019986 30.989823887557 32.781313093386 
30.796276303671 30.988026468551 32.773234143337  30.81329435429 30.984513634445 32.756601662799  30.83475186056 30.980088136895 32.735468651244 
30.845418136427 30.977899406179 32.724479987853 30.871827224326 30.972486289051 32.697009617662 30.901987800725 30.966336759523 32.664223321089 
30.908109771979 30.965090136592 32.657498692534 30.919371532862 30.962809391351 32.644585282242 30.943785788454 30.957870345975  32.61635760135 
30.957549198853 30.955105866817 32.599580539771 30.979957704788 30.950608678139  32.57210383213 31.012750552762  30.94408000393 32.529610464584 
31.016428670556 30.943348192589 32.524824368539 31.021531026901 30.942341915971 32.517798037964 31.050965901372 30.936544599343 32.476926347923 
31.079721544499 30.930945891348 32.434180969737 31.087006178104 30.929530698236 32.423216726642 31.119821011409 30.923221939158 32.370949678069 
31.121815204411 30.922839956992 32.367712178726 31.142899394455 30.918848904018 32.331416113493  31.15342663291 30.916856006178 32.313301632082 
31.154138404101 30.916723084945 32.311997652084 31.162989498851 30.915078261423 32.295430623352 31.182161227115 30.911514513278 32.259589955531 
31.184032821346 30.911168690887 32.256000721812  31.20712496506 30.906949247542   32.2096569378 31.215984480073 30.905342882869 32.191335176512 
31.231572866136 30.902547773717 32.157737861109 31.247128659995 30.899782423823 32.123171705888 31.255180442635 30.898365755608 32.104641541009 
31.276502333144 30.894657727439 32.053684276142   31.2770533833 30.894563110908 32.052314529075  31.27864511079  30.89429378827 32.048185019937 
31.297261993908 30.891134792812 32.000276845523  31.30285156328 30.890203046404 31.985166489453 31.316106190393  30.88802321546 31.948047574671 
31.326231368543 30.886385534137 31.918498278805 31.334023378805 30.885143409308 31.894968117523 31.347177529993 30.883082472856 31.853682723972 
31.351179985046 30.882466465745 31.840639253448 31.366182943982 30.880208643733  31.78952015423 31.367719537759 30.879981566796 31.784103482516 
31.383072796736 30.877783163222 31.726918671402 31.383489313333 30.877723390296  31.72537307834 31.383525831572 30.877718334643 31.725229531687 
31.398035445815 30.875781918209 31.665052566196 31.399231752434 30.875631386988 31.659694559498 31.411129660476 30.874200773653 31.603516985438 
31.413304593832 30.873967346508 31.592027338965 31.422333947913 30.873067469353 31.541320438246 31.425278874384 30.872845239341 31.521685991443 
31.431582181809 30.872386787003 31.478912854415 31.435302036605 30.872258870218 31.447473239608 31.439169096945  30.87209334716  31.41620347021 
31.443823094758 30.872162127516 31.366926705563 31.445162373694 30.872163245741  31.35355774149 31.446799945905 30.872450333032  31.32479700161 
 31.44907958725 30.872689626788 31.291726849849 31.449402984555 30.873038656152 31.273345505951 31.450603165376 30.873765933968 31.229809345928 
31.449757598389 30.875334622478 31.170061894961 31.449755042201 30.875395524555 31.167441205402 31.449681794407 30.875462118317 31.165276313778 
31.448425657769 30.877129495039 31.105324491128 31.445555990036 30.879002804922 31.052473222251 31.445193469802 30.879303068769 31.043032764343 
31.444327706603  30.87977604804 31.031093274725 31.441342623637 30.881616185431 30.980831218098 31.437174577911 30.883518667078 30.939626055967 
31.435486494727 30.884372927767 30.919299141651  31.43231297669 30.885637959368 30.895898819865 31.427823187403 30.887503462561 30.859500361701 
31.421435075554 30.889829443425 30.821975357919 31.418163275452 30.891086836938 30.799884407627 31.415224874151  30.89211929743  30.78425053212 
31.406699010387 30.895103061552 30.739407668897 31.395351405168 30.898834683711 30.690136232611 31.393040586711 30.899595987898 30.680041836468 
31.389548145055 30.900710317606 30.666361302045  31.37995892147 30.903908458866 30.622780146463 31.369391507957 30.907367834677 30.577577712939 
31.367257691053 30.908083759091 30.567694561243 31.365750299797 30.908592841472 30.560568029783  31.35733390403 30.911613280972 30.513042909426 
 31.35073947976 30.913936212643  30.47770235848 31.347868719436 30.915027214666   30.4588521796 31.340398410435   30.9177119346 30.416503906729 
31.338391976646 30.918469422556 30.403547931114 31.337462256361 30.918800026617 30.398430565547 31.330100328811 30.921652411224  30.34771953369 
 31.32539663152 30.923337213299 30.321299810485  31.32121877007 30.924972847714 30.291786427844 31.312847751223 30.927962858335 30.245132085483 
 31.31156647094 30.928464143901 30.236095430535 31.306631110754 30.930204027677 30.209586585258 31.301796298988 30.931982194788 30.180414332742 
 31.29978193461 30.932664982225 30.170782871247 31.291692443524 30.935582712845  30.12446894132 31.286112796254 30.937444134898 30.099087457811 
31.280386325194 30.939462463336 30.068348902664 31.271102706275 30.942498767962 30.028759807357  31.26774439712 30.943654408371  30.01195030572 
31.254329248595 30.947953127924 29.958602898586 31.253604695081 30.948196047381 29.955254736032 31.249935703134  30.94934039763 29.942025806853 
31.238625299934 30.952939264226 29.898152412257 31.235201513298 30.953969253498 29.887453517954 31.221823268939  30.95810355166 29.840882952523 
31.211412057125 30.961114522058  29.81360955883 31.201364638556 30.964093610472 29.784103131102 31.178443454653 30.970481492479 29.734530820033 
 31.17605994101  30.97116149251 29.728692001452 31.171216226686 30.972477553348 29.719686188577 31.148829349622 30.978623322972 29.675319154471 
31.126460893397 30.984544166511 29.640541643506 31.117677858077 30.986905942985 29.625281117215 31.109075933128 30.989161501553  29.61283430432 
31.085907107319 30.995278394267  29.57749914299 31.059059893002 31.002275352201 29.540511338713 31.054760783177 31.003403230389 29.534265208677 
31.036413329027 31.008179898406 29.509207966003 31.021832718919 31.011993410209 29.488533785245 31.018789091622 31.012787079557 29.484321634107 
30.982905715084  31.02206994229 29.437887408948 30.979767131736   31.0228771117 29.434033124845 30.937441185016 31.033595685103 29.389296576019 
30.930804281636 31.035250082501 29.383425433528 30.887346782461 31.046086516351 29.344822352005 30.872264214873 31.049807036557 29.333180966435 
  30.8363761648 31.058676818572 29.304741024937 30.813921120772 31.064173496888 29.289254118266 30.785630748938 31.071115996748 29.268985992101 
30.756514470146  31.07819865869 29.250842427525 30.734373807032 31.083597739616 29.236469184542 30.699087230909 31.092128248565 29.216787981293 
 30.68234259535 31.096185222328 29.207058958499 30.641229716147 31.106064593744 29.186719517748 30.629367651039  31.10892046432 29.180615092234 
30.582903946269 31.120018120935 29.160561752995 30.575514979693  31.12178639281 29.157222887998 30.524210980505 31.133969456053  29.13815133655 
30.520964352609 31.134741980073 29.136876951836 30.471321804411 31.146465141783 29.121262822382 30.465533391189 31.147832644695 29.119417832698 
30.465134011909 31.147926382262 29.119317261193 30.409460785632  31.16103500412 29.103487474376 30.405832742405 31.161884534359 29.102660804497 
30.352504412278 31.174415462143 29.088608867202 30.345478514259 31.176052603546 29.087356389068 30.293341012786 31.188234643124 29.076619272443 
30.282792191059 31.190675057956 29.075504408854  30.23305154024 31.202199149076 29.069515350616 30.215870796911 31.206146423285 29.068890124427 
30.173782923347 31.215834550933 29.066557196597 30.142330372397 31.223017737521 29.067282378049 30.115323433774 31.229202217829 29.067184239959 
30.065534636936 31.240519234498 29.070671144905 30.057467386632 31.242356785729 29.071068349762  30.03422674159 31.247613190614 29.073834535268 
30.000561865276 31.255243007949 29.077157852169 29.989228652683 31.257793457642 29.079063621083 29.943887610463 31.268010297673 29.086114649824 
29.911876797323 31.275168821905 29.093463815838 29.887530074416 31.280620487657 29.098747156027   29.8326944641 31.292808608677 29.114581018935 
 29.83087223068 31.293214128817 29.115085526524 29.826319475351 31.294220214004  29.11665387961 29.773729485436 31.305867997158 29.133629905058 
 29.75229192307 31.310589970467 29.141683083338 29.714411958886 31.318944030904 29.155461994485 29.670271868233 31.328644017783 29.173025012881 
29.652314985145 31.332595789777 29.179923798088 29.613188439437 31.341185943696  29.19584318174 29.592145147731 31.345816291027 29.203955995809 
 29.57885545323 31.348736095706 29.209272826012 29.534035936318 31.358600234278 29.226461202462 29.492868764257 31.367661328657 29.242214790392 
29.477905167565 31.370961337329 29.247660788217 29.453581595179 31.376331204805 29.256267899821 29.423177731096 31.383052497593 29.266631575579 
29.408487382601 31.386303143658 29.271504603898 29.369108551185 31.395023374868 29.284281521188 29.334100145479 31.402781128357 29.295408837837 
29.315195623237 31.406972677343 29.301314791245 29.266389063513 31.417802726788 29.316190501774 29.264138945795 31.418302419296 29.316859055384 
29.256363197232 31.420030738041 29.319103007861 29.214824689829 31.429271186452 29.330757181003  29.20476046702 31.431511099197 29.333534074727 
29.167378593064 31.439837212366 29.343573284949 29.154464805058 31.442715438089  29.34695792398 29.112300493893  31.45211257579 29.358028360825 
29.102948202613 31.454197431208 29.360461463236 29.052613342211  31.46541705613 29.373611020132 29.048795033335 31.466268225372 29.374605507201 
29.007908717257 31.475377568088 29.385469394986 28.992396277131 31.478834717965 29.389546579108 28.991024686693 31.479140123248 29.389918877479 
28.936448256919 31.491292980971 29.404707090852 28.929946565625 31.492738855034 29.406551196129 28.881464804554 31.503521378754 29.420261409777 
28.869300466302 31.506222039822 29.423907016885 28.827464376042 31.515511460773 29.436393138272 28.808203009153 31.519778333319 29.442575537387 
28.774172364209  31.52731902264 29.453409256778 28.745791797773 31.533589975699  29.46321600443 28.721292595389 31.539005083202 29.471604301973 
28.681196200402  31.54783900666  29.48657828342 28.668502068527  31.55063701021 29.491263782668 28.618897258949 31.561531806434 29.511265672484 
 28.61602603679 31.562162870723 29.512403762248 28.615285705043 31.562324957396 29.512724604584 28.563933628738 31.573575912024 29.534630089212 
 28.55008915756 31.576596310197 29.541094039261 28.512577511395 31.584783842864 29.558445091425 28.487422239414 31.590248110982 29.571222650802 
28.462080597886 31.595753649821 29.584060671911 28.427953759685 31.603128920036 29.603038360437 28.412152301352 31.606543145977 29.611855087524 
28.370987208178 31.615385406904 29.637096017804 28.362793493589 31.617144552024 29.642157667921 28.315669688049  31.62719548208 29.674148506396 
28.313964896623 31.627558775263 29.675319648159   28.3010742507 31.630285814402 29.685042971096 28.265948479379 31.637721915949 29.711312942119 
28.261332335463 31.638691559402 29.715095098162 28.218841816008   31.6476138465 29.750041600154 28.207079093247 31.650063098662 29.760616144938 
28.171802781518 31.657406013849 29.792432202663 28.150216512596 31.661856682192 29.813752241871 28.124588601919 31.667148011548 29.838744590418 
 28.08678675184 31.674858279451 29.879718502684 28.074687714622 31.677333765165 29.892498196041 28.062463309591 31.679789041395 29.907402864096 
28.027817864962 31.686756068196 29.949276204142 27.999678599784 31.692339243737 29.986565992721 27.987493862649 31.694758739463  30.00263074129 
27.958286109162 31.700490598764 30.044087533895 27.950524847856 31.702019424972 30.054855079214 27.947759653801 31.702556631576 30.059016610632 
27.916475273029 31.708646784557 30.105560021261  27.90189053142 31.711447972966 30.128911020597 27.884950174526 31.714711630043  30.15559717093 
27.860231800299 31.719400543365 30.197717496393 27.855890645217  31.72022686526 30.204991760579 27.844615245441 31.722333015329 30.225626747518 
27.828536163247 31.725351263318 30.254409411804 27.823459549719 31.726284460296  30.26435491803 27.802532015523 31.730150420407  30.30452801119 
27.791263743068 31.732183629192 30.328261310869 27.777624663523 31.734659151268 30.356356582265 27.762002369169 31.737431750252 30.391269183764 
27.753269342394 31.738990208144 30.410414386632 27.734243567735 31.742317610324 30.455072323645 27.728995745033  31.74323998907  30.46719070245 
27.707380991584  31.74696072654  30.52050856054   27.7048458086 31.747398477772 30.526703619218 27.681911906713 31.751247918709 30.587549647027 
27.681378484748 31.751337117121 30.588979475307 27.671823316083 31.752863915987 30.617677188418 27.659540114048 31.754834628217 30.654220300955 
 27.65901391599 31.754914070656 30.656002164613 27.640651130644 31.757611057103 30.721456769058 27.639758448071 31.757727800179 30.725263000742 
27.625556620547 31.759478926863 30.790429330301 27.624723829027 31.759555551358 30.795382987901 27.614383211037 31.760440298601 30.859789006009 
27.613689878236 31.760451677611 30.866190444987 27.607200491761 31.760468253795 30.930013235786  27.60681102293 31.760357892457 30.938681918251 
27.604039565285  31.75957483676 31.000269366245 27.604377532673 31.759198301855  31.01326789983 27.605552966301 31.757705927335 31.066418779169 
27.609839713636 31.756088220226 31.094070272772 27.613182415985  31.75465251215 31.123203561733 27.623885877273 31.751045491924 31.173467824208 
27.624394562556 31.750862385006 31.176364223483 27.626326001098 31.750247805521 31.183856916143 27.636593352884 31.746885626027 31.227820694403 
27.641265066684 31.745473304519 31.242719609482 27.651011790194 31.742413525035 31.278722648494 27.661712321694 31.739254020429 31.309572099309 
27.668043202327 31.737314977537 31.330854387063 27.685465197513 31.732294525835 31.375708255536 27.688128209453 31.731497932449 31.383833027051 
27.702923176365 31.727317966669 31.418297161268 27.710858191528 31.725049066764 31.437956677403 27.713064131731 31.724445891816 31.442223683114 
27.735988143937  31.71799396587  31.49455048701 27.744890747987 31.715588431281 31.510523021871 27.764181303403 31.710185108131 31.553427564228 
27.780830893973 31.705695260758 31.582909673644 27.794981135147 31.701701716219  31.61568645502 27.825368009045 31.693553697551 31.667481081012 
27.826508093408 31.693244182704 31.669589881608 27.827457459523 31.692992528908  31.67108156837 27.855089142378 31.685437241519 31.724525764073 
27.869611791134  31.68156501666 31.748327427807 27.885393405419 31.677263893233 31.778242569921 27.907537037325 31.671382294089 31.813551052429 
27.919870351378 31.668073736845 31.834637093695 27.947880568899 31.660682438548 31.877191303698 27.957321075744 31.658171934793 31.892374662278 
27.994032580166  31.64863064025 31.941800897133 27.996006023719 31.648112956519 31.944665820713 28.000935630489 31.646851975897 31.950424191832 
28.034181730004 31.638246828827 31.993642764767 28.055940368752 31.632746742145 32.016204160637 28.074237064888  31.62805539326 32.038059237717 
28.100447679692   31.6214864871 32.062780344879 28.116096271258 31.617517624679 32.079582228728 28.131272235675 31.613750942447  32.09230037357 
28.159269290298 31.606714545389 32.119565519908 28.191258000794 31.598832257797 32.143882728816 28.206205476412 31.595110925249 32.156903025257 
 28.22220195828 31.591207042139 32.167421551881 28.254394039849 31.583273098214 32.191960443822 28.290792677916 31.574486035456 32.211728070951 
28.305245947092 31.570956807622 32.221317020438 28.319140979133 31.567615573266 32.228290095573 28.356538396443  31.55857958018 32.248939618795 
28.398300684254 31.548594309607 32.267421260737  28.40741915592 31.546393639712  32.27234569561 28.416357519138 31.544259847921 32.276155713514 
28.457763937278 31.534343076843 32.295200600553 28.497460228728 31.524933076197 32.309235800314 28.508572563105 31.522277631362 32.314088768931 
28.522062517869 31.519082922249 32.318724391063 28.559377141795 31.510220671081 32.332648519311 28.588569670938 31.503338831943 32.341308222526 
28.611023621522 31.498002951983  32.34981953245 28.644112784841 31.490188310517 32.360252578121 28.664195586375 31.485432544203 32.367142020981 
28.677336509601 31.482334920501 32.371030857035 28.718396934977 31.472578489598   32.3865504003 28.771827534587 31.459929861661 32.404699085315 
28.773402582684 31.459554619997 32.405337507421 28.774935054985 31.459190250323 32.405927012225 28.828235871335 31.446507053242 32.426868495632 
28.870020081371 31.436607152498 32.441422896504 28.881338418172 31.433925305117  32.44537413385 28.896507415748 31.430344538568 32.450083784291 
28.930908883474 31.422181498482 32.462602189124 28.956061496977 31.416237306573 32.470703113347 28.977871364938 31.411078545108 32.477924865785 
29.020874295801 31.400937446144 32.490837688748 29.024999984275 31.399961581001 32.492203893833 29.026711685291 31.399557404661 32.492740347826 
 29.07240741249 31.388771462821 32.506888353359 29.094924717308 31.383454065909 32.513966482737  29.12048226859 31.377414976192 32.522163104909 

POLYGONS 1 415
414 0 1 2 3 4 5 6 7 8 9 10 11 12 13 14 15 16 17 18 19 20 21 22 23 24 25 26 27 28 29 30 31 32 33 34 35 36 37 38 39 40 41 42 43 44 45 46 47 48 49 50 51 52 53 54 55 56 57 58 59 60 61 62 63 64 65 66 67 68 69 70 71 72 73 74 75 76 77 78 79 80 81 82 83 84 85 86 87 88 89 90 91 92 93 94 95 96 97 98 99 100 101 102 103 104 105 106 107 108 109 110 111 112 113 114 115 116 117 118 119 120 121 122 123 124 125 126 127 128 129 130 131 132 133 134 135 136 137 138 139 140 141 142 143 144 145 146 147 148 149 150 151 152 153 154 155 156 157 158 159 160 161 162 163 164 165 166 167 168 169 170 171 172 173 174 175 176 177 178 179 180 181 182 183 184 185 186 187 188 189 190 191 192 193 194 195 196 197 198 199 200 201 202 203 204 205 206 207 208 209 210 211 212 213 214 215 216 217 218 219 220 221 222 223 224 225 226 227 228 229 230 231 232 233 234 235 236 237 238 239 240 241 242 243 244 245 246 247 248 249 250 251 252 253 254 255 256 257 258 259 260 261 262 263 264 265 266 267 268 269 270 271 272 273 274 275 276 277 278 279 280 281 282 283 284 285 286 287 288 289 290 291 292 293 294 295 296 297 298 299 300 301 302 303 304 305 306 307 308 309 310 311 312 313 314 315 316 317 318 319 320 321 322 323 324 325 326 327 328 329 330 331 332 333 334 335 336 337 338 339 340 341 342 343 344 345 346 347 348 349 350 351 352 353 354 355 356 357 358 359 360 361 362 363 364 365 366 367 368 369 370 371 372 373 374 375 376 377 378 379 380 381 382 383 384 385 386 387 388 389 390 391 392 393 394 395 396 397 398 399 400 401 402 403 404 405 406 407 408 409 410 411 412 413 

CELL_DATA 1
FIELD FieldData 6
ClosedSection 1 1 int
1 
SectionArea 1 1 double
        11.6725 
SectionLength 1 1 double
        12.4744 
SectionMinSize 1 1 double
        1.59977 
SectionMaxSize 1 1 double
        2.16452 
SectionShapeFactor 1 1 double
       0.739089 
