# vtk DataFile Version 4.2
vtk output
ASCII
DATASET POLYDATA
POINTS 396 double
40.208659645548 40.621634300904 27.646066458602 40.204929697771 40.620460645086 27.649025964976  40.16167803352 40.606517441648 27.684447911874 
40.157764125663 40.605279885088 27.687573284616 40.114895262308 40.591337690907  27.72308665833 40.110505088169 40.589922887307 27.726680525979 
  40.0688033163 40.576034242372  27.76230566294 40.063549465928 40.574281689968  27.76680311801 40.023590518229 40.560585099135 27.802224320618 
40.017063955179   40.5583210985 27.808098764551 39.979696160041 40.545086257593 27.842633790376 39.971327666287 40.542055136992 27.850590165004 
39.937114116181 40.529509877717  27.88362466091 39.926518367223 40.525495954031 27.894281135395 39.896707207749 40.514248248254 27.924112694758 
39.884060081679 40.509282778169 27.937409400602  39.85792474036 40.499009976051 27.964925599137 39.844822826043  40.49370358364 27.979237615486 
 39.81767322266 40.482729393251 28.008823176725   39.8097283647 40.479517520126 28.017482422563 39.795738115955 40.473555473507 28.033743670903 
39.773033827267 40.464287073584  28.05878632261 39.751507223355 40.454798178008 28.084850002142 39.733564456248 40.447015324393 28.106156673501 
39.719341418502 40.440524911707 28.124108323641 39.692100115117 40.428891316148 28.155852740466 39.659124422564 40.414202970682 28.196283802722 
39.652952160794  40.41149740508 28.203706817729 39.647311524327 40.408903683705   28.2108914192 39.613909187013 40.394632449084 28.249836904405 
39.583837855922 40.381295930202 28.286514624022 39.575696407124 40.377690667056 28.296426682048 39.565415822397  40.37300001316 28.309400052674 
39.535723749811 40.360575185457 28.343155448763 39.513237725977 40.351159044812 28.368740914976 39.493366164193 40.342739059394 28.391677964037 
 39.46466566128 40.330362681497 28.425518542205 39.450258542393 40.324704277012 28.440672029848 39.441778687691 40.321325942306 28.449749549042 
39.407976705615 40.306972338094 28.488868607732 39.383421010758 40.296269218378 28.518199512105 39.368696512954 40.289236898863 28.537819849972 
39.333959052655 40.273048021864 28.582779085326 39.332233479255 40.272326697138 28.584738313685 39.331277821871 40.271933741828 28.585801773932 
39.295247488199 40.256475646512 28.628023250135 39.272142149411 40.245918377431 28.657230675239 39.260535439659 40.240256576851 28.673088664915 
 39.23528370167  40.22655528938 28.712166307908 39.228284402151 40.223399197074 28.720875091621 39.225071197498 40.221789059959 28.725406564341 
39.200056891863 40.205705189115 28.772425454876 39.190435682464 40.199820657366 28.789511850311 39.178057587873  40.18631870137 28.831117017208 
39.169695778844 40.179326932431 28.852178339622 39.164744077293 40.165062183266 28.898145579543 39.162638191769 40.160406477845 28.913027048037 
39.165158618893  40.14793719016  28.95490402852 39.163961793003 40.142709347361 28.971903385448 39.164542832733 40.141426168706 28.976292457734 
39.165750642845 40.125206383553 29.030252524002 39.172376554385 40.118209854822 29.055039938723 39.178189087378 40.110252364983  29.08280520984 
 39.19530564784 40.097211389206 29.130186950668 39.196058934283 40.096702450183 29.132057192461 39.197636483794 40.095823742352 29.135354820288 
39.213691943079 40.083153033785 29.181248894774 39.222400477645 40.078386858818 29.199173044526 39.236845219398 40.071099455285 29.226858402729 
 39.26174034489 40.062329910889 29.262034318915 39.266027148725 40.060293419267 29.269833025014 39.269971411673 40.058973464692 29.275176361858 
39.297079390551 40.049886565426 29.311950017372 39.325049906178 40.042754212883  29.34247083651 39.332246662112 40.040390137685 29.352073695353 
39.343392598875 40.037468879279 29.364497578063 39.366687287355 40.031186766643 29.391047945299 39.381830952345 40.027748559568 29.406171759453 
39.400408981762 40.022638074139 29.427678298151 39.427921983585 40.015972440146 29.456541777648 39.428303129483 40.015865230419 29.456990823266 
39.456447553179   40.0083715437 29.488750122313 39.466026494589 40.005743957119 29.499814505957 39.491647848036  39.99913799708 29.528012267309 
39.519215465082 39.992126640771 29.558033044881 39.530770073214 39.989262728016 29.570368377196 39.551798561975 39.984243209924 29.592180595492 
39.571616482209 39.979030715448 29.614331564064 39.583422138273 39.976105294507 29.626932537434 39.613012566705 39.968870832465 29.658192196646 
39.654088060991 39.959617041744 29.698975775141 39.655941275557 39.959154561367  29.70096461162 39.657574785166 39.958791093668 29.702571487516 
39.698616530964  39.94940449743 29.743786081152 39.737399369264 39.941184648335 29.780581429833 39.738891862041 39.940845956577 29.782071427746 
39.740125784062  39.94058768496 29.783231354503 39.776171268903 39.933047613868 29.817100089066 39.792857388114 39.929795804566 29.831989078715 
39.809672000621 39.926708643883 29.846365159371 39.828017422257 39.923340878498 29.862048549981 39.853315781925  39.91919813927 29.882017103752 
 39.86587976524 39.917066275161 29.892180427686 39.905355348235 39.911216840542 29.921305061751 39.906119506976 39.911095336173  29.92189621762 
39.908217811447 39.910806265978 29.923372023144 39.948284630858 39.905132793201 29.952060876103 39.964158106622 39.903220981657 29.962315479228 
 39.99241607572  39.89943660011 29.981831130904 40.028140197455 39.895389008492 30.004065892365 40.038624960403  39.89403674569 30.011135276459 
40.065836531285 39.891115292002  30.02753699759 40.086105966051 39.888876049457 30.039963123069 40.094321481418 39.888122844034 30.044488830613 
40.134477174973 39.883903894897 30.068387581766 40.159421482843 39.881709358717 30.081823108942 40.184207181265 39.879212877686 30.096218316419 
40.223973214692 39.875840554137 30.117219652411 40.235490682375 39.874729496898 30.123746694438 40.284124484437 39.870743593872 30.148973274751 
40.288420371378 39.870383243022 30.151228934434 40.289503884115 39.870305955543 30.151752863395 40.343044796273 39.865970525511 30.179350607896 
40.358113289033 39.864921974841 30.186549943246 40.400084868357 39.861627953804 30.207838228245 40.432310142601 39.859497062051 30.222865664834 
40.461027525555 39.857390447881 30.236944372111 40.515830398573 39.854067184936 30.261505902445 40.527741859127 39.853239758056 30.267192126583 
 40.57405426636 39.850718576436 30.286998183324  40.60304334223 39.849034277184 30.299746976325 40.609182400903 39.848776454428 30.302119728816 
40.630896347323 39.847894569221 30.310412814911 40.683786772117 39.845369045586  30.33186168411 40.703482705609 39.844557134065 30.339423694048 
40.749631934177 39.842681648863 30.357053151325 40.796260473462 39.840927128648  30.37440106927 40.810882701567 39.840374067587 30.379850664483 
40.840270693019 39.839318721562 30.390617402198  40.86920109184 39.838124694824 30.401729665947 40.884589383275 39.837525161064 30.407522655948 
40.925982845903  39.83580699021 30.423454326378 40.973872775599 39.833908565287 30.441590602992 40.982095609344 39.833551073559 30.444808954669 
40.996027130737 39.832963472556  30.45020183015 41.037956698129 39.831020052363 30.467011426453 41.063421496266 39.829891856938 30.477047955167 
41.093800350357 39.828379290807 30.489572643449 41.145846240914  39.82588299293 30.510715750954 41.149383025221 39.825703785709 30.512184197668 
41.151454275882 39.825614040802 30.512993863838 41.204841757773   39.8229407573 30.535054628409 41.240700769241  39.82158205352 30.548426945293 
41.261053967603 39.820646837626  30.55655960364 41.292852578937 39.819728554734 30.567469656355 41.317973613066 39.818955815738 30.576245101558 
41.333953876019 39.818800427761 30.580715240543 41.375873194146 39.818050599517 30.593573454912 41.423052044619 39.818073930568   30.6051758163 
41.432004238619 39.818013162524 30.607593055732 41.449298436808 39.818253042621 30.611080777898 41.485509309003  39.81871313792 30.618522939486 
41.500919542843 39.819196743144 30.620737936248 41.534679688054 39.820141899309  30.62596863715 41.558520973482 39.821192080583 30.628396373028 
 41.59045658472 39.822688519395  30.63135154676 41.618206869808 39.824550255651 30.632062065968 41.650553313774 39.826662160162 30.633082756356 
41.681691282497 39.829156399741 30.632539371679 41.711952938769 39.831436577356   30.6324872443 41.746312636086 39.834566394599 30.630638701018 
41.771880372875 39.836724852041 30.629827247065 41.809797566269 39.840623170286 30.626316907764 41.830540112748 39.842614600577 30.624863522246 
41.871492606207 39.847454645796  30.61898901687  41.88785320334 39.849280423058  30.61699888197 41.931302548892 39.855294634328 30.607857918246 
41.944121729939 39.856956793282 30.605532383929 41.989514315131 39.863893979124 30.593818944637 42.000408698514 39.865451125768 30.591364328983 
42.046952343603 39.873028503931 30.577817851412 42.057884797369 39.874721184362 30.574924264414 42.104505362814  39.88286381774 30.559526755373 
42.117244653364 39.885004403916 30.555598628843 42.162690607166 39.893510363577  30.53870831609 42.178738158168 39.896444637406 30.532973366235 
42.221750294434 39.905250310992 30.514488975271 42.241818000661 39.909292360534 30.506084318323 42.281607089075 39.918308123728 30.486106978543 
42.304801167797 39.923510690639 30.474636861587 42.342014658366 39.932780873103 30.453180196116 42.366672757744 39.938912305704 30.438999478617 
42.403233105173 39.948922941942  30.41493142611 42.426672292245 39.955329780067 30.399537812327 42.466519282215 39.967227428665 30.370040461363 
42.484544537646 39.972621349402 30.356657686275 42.529086113459  39.98709813777 30.319789771847 42.541208245686 39.991091475215 30.309579274198 
42.587645419025 40.007573553785 30.266546388646 42.596540925572 40.010771435663 30.258168772657 42.642241671626 40.028369178522 30.211262546851 
42.647824306035 40.030539127676 30.205465582051 42.692427735244 40.049123433386 30.155023789951 42.693377338612 40.049522055629 30.153940082663 
42.699887895641 40.052429829163 30.145931836895 42.734023573885 40.067612009752 30.104154149886 42.738622242669 40.069784705325 30.098104509364 
 42.77011748926 40.084595424968 30.056902090239 42.781950604348 40.090417851054 30.040568740524  42.80291840972 40.100707523264 30.011717459425 
42.825495992247 40.112180507077 29.979349859715 42.833756044571 40.116344872254 29.967617446283 42.849896733368 40.124700949774 29.943968217045 
42.864318785008 40.132069119454 29.923161889059  42.87159973169 40.135959938251  29.91209208204 42.894050735117 40.147864918793  29.87826394121 
 42.91892651074 40.161997356446 29.837666820719 42.922353265195 40.163924842667 29.832138305693 42.926700502487   40.1666042041 29.824350182551 
42.949284474441   40.1801692843 29.785062734209  42.96503574037 40.190801098859 29.753788118088 42.973839231203 40.196644051452 29.736636848319 
42.982662514669 40.203289694312 29.716834881434 42.996305187136  40.21329422698  29.68711354505 43.007944996772 40.223061982634 29.657679728075 
43.016501809936 40.230115625577 29.636461978549 43.023420234403 40.236707531671 29.616366227812 43.034811564242 40.247259249991 29.584277258313 
43.047093367266 40.260513894192 29.543466452669 43.051383068383  40.26501546973 29.529635526173  43.05383528941 40.267990594422 29.520399780195 
43.066420218141 40.282904984357 29.474172961892 43.073390001011 40.293098666509 29.442173915003 43.079702031726 40.302894142416 29.411329449522 
43.084504120179 40.311977171471 29.382468222531 43.091238413687 40.326322288861 29.336676391418 43.092658690702 40.330165482863 29.324313283338 
43.095354143346 40.340160048092 29.291914840119 43.097919836054 40.348387042778 29.265332052258 43.098586911398 40.351369369327 29.255630550984 
43.100669071055 40.366297224477 29.206759129724 43.101351542828  40.37603436116 29.174714024024 43.101394414704 40.382468280885 29.153438845824 
43.100801496566 40.397347010629 29.104067710026 43.100720110626 40.398005258896 29.101869832922 43.099624915129 40.405014485073 29.078409588885 
43.098232853351 40.414257524631 29.047485570184 43.098108871632 40.414978327724 29.045070193559 43.093625687681 40.430999692688 28.990955726554 
43.093182365464 40.432580532149  28.98561597519 43.086963274221  40.44804912392 28.932900547339 43.085907773963 40.450639292568  28.92407001068 
43.078230386721 40.464886435972 28.875034572522 43.076189449288 40.468712168017 28.861872380274 43.067847457696 40.481458836677 28.817636540007 
43.064396751625 40.486864536772 28.798898226836 43.056281608272 40.497733047425 28.760932187818 43.051119632462 40.504950289621 28.735776981602 
43.043962981448 40.513859712251 28.704529615413 43.037016623629 40.522872142191 28.672993522828 43.031343371778 40.529608017375 28.649304286147 
43.023113247789 40.539769487792 28.613648933841 43.018604967129  40.54474027965 28.596087646226 43.009898755624  40.55474787324 28.560823515755 
43.005937875421 40.558895344961 28.546121590272 42.998545045312 40.567096075407  28.51716037228 42.986330536055 40.579780453416  28.47217193597 
42.984336192696 40.581785315042 28.465045392853 42.981597111732 40.584272304567 28.456139425419 42.967870930273 40.597188471915 28.410009915988 
42.959542300294 40.604716042794   28.3830440937 42.948955465418 40.613639851806 28.350899959132 42.932578749066  40.62712210085  28.30224147783 
42.929672980016 40.629383614502 28.294040203031 42.923621863099 40.633890330227 28.277632308295 42.910252305804 40.644080790626 28.240608733402 
42.902313919473 40.649832374077 28.219615144217 42.890456398471 40.658159023957 28.189132063637 42.875765013516 40.667991631572 28.152965168071 
42.870017004721 40.671948680272  28.13845081276 42.864588967116 40.675463050585 28.125480213404 42.848942583956 40.685355893205 28.088877619709 
42.829179273047 40.697185333925 28.044848859073 42.826325483571 40.698946482635 28.038315845004 42.824290636162 40.700138113576 28.033869743315 
42.801946291009 40.712729759508 27.986680367024 42.784317245069 40.722168266007 27.951090059621  42.77644309424 40.726239888066 27.935670307565 
42.765737763134  40.73150796999  27.91559133858 42.749942872291 40.739539847851 27.885108741759 42.737917194993 40.745430197041 27.862644218398 
42.725813544227 40.751192823456 27.840582946287 42.706714074926 40.760192034451 27.806081974721 42.695834863134 40.764984766999 27.787532591955 
42.673443624045 40.774680848511 27.749911207143 42.656092644858 40.781690467944 27.722425396476 42.635688774313  40.78983260151 27.690437038495 
42.609253354334 40.799840462232 27.650782999091  42.59365224161 40.805639267254 27.627736206545 42.559064349351 40.817990554466 27.578311025691 
42.549251853392 40.821417286188 27.564544955147 42.512914485625 40.833695082224 27.514929811939    42.506484152 40.835862046073  27.50616880525 
42.504246899488 40.836580362733 27.503238495459 42.466127198983 40.848801250071 27.453370394802 42.438958865242 40.857270667643 27.418624656243 
42.428165674073 40.860633303565 27.404827858437 42.416712973551 40.864129904486 27.390424587277 42.391352198025 40.871766087519 27.358882974761 
42.362397750685 40.880313609842 27.323436668232 42.354795575341 40.882547375793 27.314164555459 42.349250237013  40.88414983506 27.307490227745 
42.316764432079  40.89332405273 27.269096361327 42.279395899463 40.903506117196 27.226159400901 42.278007325759 40.903871477897 27.224606898344 
42.276497369689 40.904246389709 27.222992747869 42.237485962417 40.913844141885 27.181582200695 42.197613814175 40.922914835933 27.141702273016 
42.195913786021  40.92330154178 27.140002049446 42.193721498391 40.923749209464 27.137978278258 42.152636268199  40.93180327981 27.101161409289 
42.120087763564 40.937502519964 27.074248534804 42.107876744385 40.939633783155 27.064174578375 42.085522523462 40.943048082404 27.047344822142 
42.059599400999 40.946918786877 27.028121594529 42.047054198397 40.948571648865 27.019547636513 42.005851366255 40.953826506506 26.991962487427 
41.983355879676 40.956210465609 26.978506506759 41.927157650667 40.961446225736 26.947272293841 41.926686835481 40.961491105543 26.947007260266 
41.926360120882  40.96151460543 26.946848632789 41.869253945445 40.965369415286 26.919958344976 41.821787276462 40.967330287881 26.901720250313 
41.814028335018 40.967626080181  26.89882086393 41.805771619748  40.96777204048 26.896293948959 41.759621944738 40.968586694692 26.882174003327 
41.713947448817 40.968634544571 26.870708565545 41.708465664562 40.968632259668  26.86935905981 41.703050306971 40.968551782754 26.868284686751 
41.657874010139 40.967916496779 26.859202649284 41.618732636588 40.966940813457 26.852740772015 41.607386238828 40.966630084757 26.850959874833 
41.591924785788 40.965994792278 26.849234035969 41.555945457554 40.964558681726 26.845078215441 41.531282891763 40.963214742289 26.843419025117 
41.502343274676 40.961558255182 26.841735035796 41.462146169286 40.958569963032 26.841670258687 41.447699109222  40.95750597866 26.841613813633 
41.436995473593 40.956501756677 26.842286370863 41.392561359752 40.952285739645 26.845234453201 41.337127765972 40.945864269678 26.852755971133 
41.281801964143 40.938110158983 26.864713043473  41.23362000513 40.930210005536 26.878921801976 41.228148227191 40.929312333818 26.880537044902 
41.222818758365 40.928300618411 26.882564816527 41.176951129679 40.919540447518 26.900191764862 41.128841275228 40.909057898729 26.922961894589 
41.126134139566 40.908472736117 26.924227653628 41.122536894778 40.907617164247 26.926167672205 41.075693388077 40.896503666418 26.951338711039 
41.045273606635 40.888723961639 26.969546167659 41.020124791564 40.882313265112  26.98452931266 40.998704027406  40.87648052597 26.998523272948 
40.963161839906 40.866817508908 27.021693327016 40.927654104286 40.856697790183 27.046382848355 40.912075610217 40.852252908031 27.057231569793 
40.869005396957 40.839504456248 27.088745755147 40.865691825188 40.838521129877 27.091178658785 40.851915280066 40.834279812932  27.10179999974 
40.823494162404 40.825551211755 27.123641544612 40.816049361497 40.823187394599  27.12961890055 40.783879267321 40.813003481772 27.155347062965 
40.756112762365 40.803931805057 27.178485684166 40.744434933312 40.800127722444 27.188180047923  40.71948516111 40.791802346246 27.209546937906 
40.703163162333  40.78636942197 27.223480407677 40.696244141277 40.784031679733 27.229501659653 40.659795431137  40.77177366124 27.261032522587 
40.641131731621 40.765439325413 27.277368486825 40.615546988903 40.756813551079 27.299572012532 40.588848780233 40.747734375494 27.322999909138 
40.570854007619 40.741664858839 27.338625352262 40.538802747712 40.730763916928 27.366755131183 40.525925878384  40.72642701281 27.377915432781 
40.490360373279 40.714329225573  27.40913483668 40.480876468271 40.711156180818 27.417284618924 40.442906082535 40.698298920045 27.450421292966 
40.435668667036 40.695903722375 27.456553807405 40.396007401539  40.68259514387 27.490765015303 40.390248475651 40.680716673843 27.495554016559 
 40.34930864675 40.667145063511 27.530318911366 40.344514564606 40.665607650222 27.534218426255 40.302529758877 40.651889103848 27.569210746539 
40.298364508777 40.650567134217 27.572553166978 40.255641761128 40.636738641529  27.60772654626 40.251822192958 40.635534924588 27.610763319634 

POLYGONS 1 397
396 0 1 2 3 4 5 6 7 8 9 10 11 12 13 14 15 16 17 18 19 20 21 22 23 24 25 26 27 28 29 30 31 32 33 34 35 36 37 38 39 40 41 42 43 44 45 46 47 48 49 50 51 52 53 54 55 56 57 58 59 60 61 62 63 64 65 66 67 68 69 70 71 72 73 74 75 76 77 78 79 80 81 82 83 84 85 86 87 88 89 90 91 92 93 94 95 96 97 98 99 100 101 102 103 104 105 106 107 108 109 110 111 112 113 114 115 116 117 118 119 120 121 122 123 124 125 126 127 128 129 130 131 132 133 134 135 136 137 138 139 140 141 142 143 144 145 146 147 148 149 150 151 152 153 154 155 156 157 158 159 160 161 162 163 164 165 166 167 168 169 170 171 172 173 174 175 176 177 178 179 180 181 182 183 184 185 186 187 188 189 190 191 192 193 194 195 196 197 198 199 200 201 202 203 204 205 206 207 208 209 210 211 212 213 214 215 216 217 218 219 220 221 222 223 224 225 226 227 228 229 230 231 232 233 234 235 236 237 238 239 240 241 242 243 244 245 246 247 248 249 250 251 252 253 254 255 256 257 258 259 260 261 262 263 264 265 266 267 268 269 270 271 272 273 274 275 276 277 278 279 280 281 282 283 284 285 286 287 288 289 290 291 292 293 294 295 296 297 298 299 300 301 302 303 304 305 306 307 308 309 310 311 312 313 314 315 316 317 318 319 320 321 322 323 324 325 326 327 328 329 330 331 332 333 334 335 336 337 338 339 340 341 342 343 344 345 346 347 348 349 350 351 352 353 354 355 356 357 358 359 360 361 362 363 364 365 366 367 368 369 370 371 372 373 374 375 376 377 378 379 380 381 382 383 384 385 386 387 388 389 390 391 392 393 394 395 

CELL_DATA 1
FIELD FieldData 6
ClosedSection 1 1 int
1 
SectionArea 1 1 double
        10.9064 
SectionLength 1 1 double
        12.0421 
SectionMinSize 1 1 double
        1.64442 
SectionMaxSize 1 1 double
        2.13885 
SectionShapeFactor 1 1 double
       0.768833 
