# vtk DataFile Version 4.2
vtk output
ASCII
DATASET POLYDATA
POINTS 461 double
44.104456559638  57.25359152107 43.887794942152 44.127932981023 57.230507736466 43.876066204485 44.148112630623 57.209618739286 43.865826166617 
44.162873529505 57.195763123329 43.858551270755 44.180793286255 57.177554818288 43.849509638834  44.19784289486 57.160879782048 43.841005241107 
44.209979776182 57.147848551277 43.834775704623 44.233517441915 57.125372332601 43.823117385031 44.266026039563  57.09178617109 43.806630956712 
44.269223232615 57.088584665844 43.805024909288   44.2713945616 57.086257398404  43.80391103892 44.306747257555 57.053330178712  43.78652641621 
44.336955608741 57.023717578666 43.771448123662 44.344354931114 57.017585936276 43.767924489463 44.353100299408 57.010047231556 43.763715740124 
44.384035167873 56.984144971556  43.74894380448 44.411159371708 56.960834540977 43.735900931865 44.424367463974 56.951296174408 43.729823916641 
44.438699156395 56.940779322872 43.723204663564 44.466812009997 56.920924910038 43.710337705644 44.492819486366 56.902313631689 43.698397482389 
44.510375969527 56.892013906851 43.690679633202 44.529871183486  56.88049575603 43.682097256073 44.555771709317 56.865784828504 43.670784560623 
44.579077231107 56.852283062734 43.660565249847 44.602525530436 56.841756678394 43.650745928508 44.631464977203 56.828343202423 43.638563270704 
44.650654872103 56.819830973991 43.630542720796 44.666172091267 56.812100928452 43.623929075518 44.701146657509 56.799665228619 43.609776860751 
44.750160367707 56.778381808839 43.589360524026 44.754171872299 56.776647617173 43.587690729159 44.756801810922 56.775126712789 43.586537930342 
44.809680269696 56.753925666876 43.564778079788 44.837641954788 56.735999651447 43.552255867794 44.866842533004 56.721837704113 43.539868369407 
44.900139573693 56.699120896458  43.52474951011 44.919026588824 56.688814579971 43.516563837223 44.956632995513 56.659401543695 43.498920072271 
44.963625235502 56.654723422234 43.495759138951 44.980616716795 56.638118955596  43.48728581062 45.003030769814 56.618697497125  43.47648381005 
45.012930872664 56.608111232107 43.471408911496 45.041718940159 56.582418733071  43.45742192661 45.068085787697 56.547180825808 43.442840516438 
45.080190609519 56.533670134022 43.436549700512 45.086769028536 56.521586958484 43.432413801658 45.112358941444 56.474091296364 43.416250762169 
45.127937505153 56.433566479885 43.404654750743 45.133955434386  56.41703656056 43.400042847762 45.139621262457 56.394513534511 43.394647908742 
45.150960737987 56.360547283402 43.385531321271 45.156185394167 56.335788333137 43.379952943786 45.162484803216 56.304873285608 43.373066252929 
45.165663028042 56.272742040557 43.367090678327 45.169587905835 56.249246260677 43.362159416251 45.170929526987 56.225008591378 43.358022282987 
45.172635514666  56.19312745395  43.35260108685 45.171353857016 56.166022529017 43.348950621739 45.171615233037 56.136082087305 43.344329845594 
45.168198328714 56.096414920705 43.339528265072 45.166444740978 56.077281250187 43.337249186284 45.164208683593 56.064238128027 43.336060698557 
45.158495926412 56.016475831221 43.330840089395 45.148232020577 55.965837358753 43.326781205879  45.14636333421   55.9534755251 43.325566881478 
45.136389301896 55.913655902028 43.323042853864 45.130221293499 55.888764298901 43.321441607298 45.128170457446 55.882646911317 43.321235784571 
45.110963698427 55.823712548701  43.31835793664   45.1056628877  55.81021574552 43.318176111353 45.089212246457 55.764242242813  43.31699355471 
45.080093077951 55.743738486851 43.317091490308 45.066520227859 55.711175151911 43.316927787288 45.051160451068 55.678719776234 43.317407371108 
45.043731554017 55.661834865692 43.317459683286 45.025664542522 55.625511296908 43.318303980643 45.019467440331 55.613094107151 43.318599937975 
45.016495477302 55.607671499145 43.318822398026 44.993325685129 55.563328711614 43.320243980367 44.979894927173 55.539435659081  43.32134197111 
44.965005084465 55.511133284487 43.322284896906 44.944378190179 55.474653698781 43.324003746735 44.935960727919  55.45857978195 43.324525582507 
44.909694293969 55.412359109251 43.326749577166 44.906321982069 55.406069467766 43.326981346888 44.883799980426 55.367464952541 43.329043671922 
 44.87615510884 55.354307200291 43.329735565031 44.874904573862 55.352295484633 43.329870013227 44.845698940435 55.303411554593 43.332722377734 
44.839272932124  55.29326751814 43.333442506777 44.814949078554 55.253290935184 43.335929472584 44.802445340717 55.233663623849 43.337347487545 
44.784296319137 55.203792067845 43.339196550363 44.764480175543 55.172070436253 43.341350675081 44.754077606448 55.154575708986 43.342354074636 
44.725163516885 55.107190120072 43.345330801964 44.724207255809 55.105540962589 43.345416846005 44.721656246262 55.101254511304 43.345663477203 
44.695221564491 55.056402020917 43.348153466824   44.6839083757 55.037742979813 43.349300238789  44.66640566585 55.007674691281 43.350892778953 
 44.64125927559 54.965865101736  43.35339105992 44.637449349985 54.959333332086 43.353739742951 44.630182353594 54.947306671824 43.354470155391 
44.609405508425 54.912780069145 43.356537042982 44.598009649271 54.894768630441 43.357810782812 44.581884620144 54.868373004058 43.359475515053 
44.559671174217 54.834098501955 43.362084579301 44.558965798051 54.833018576156 43.362168705885 44.556939412835 54.830072749753 43.362434064338 
44.532447450886 54.794201826699  43.36560107258 44.527365250227 54.786669218893 43.366244746228 44.498571913828 54.746459846406 43.370264647893 
44.485555030984 54.727760287541 43.372003043915 44.460792883779 54.693623904422 43.375527231263 44.439600418687 54.664035926197 43.378487004459 
44.420337124016 54.638704258626 43.381413763775 44.392695871133 54.602211643128 43.385591680094 44.377080178496 54.582969062723 43.388159744474 
44.344785248112 54.542888298675 43.393427659754 44.330764304547 54.526935320834 43.395933811074 44.300046196765 54.490993215502 43.401274539076 
44.279601249784 54.469934484524 43.405262253742 44.262285056426 54.451229104574 43.408508212821 44.233723341417 54.422716916732 43.414216273744 
 44.23310250099  54.42209874987 43.414340590328 44.231810618885 54.420842720346 43.414603857591 44.202508137259 54.392034793622 43.420527085517 
44.194822702692 54.384445180942  43.42207549917 44.165911376617 54.357842406124 43.428195059243 44.148570531792 54.341927755094 43.431871819154 
44.125787287773 54.322385238492 43.436909298662 44.096883581823 54.297758200718 43.443325053575 44.083128585272 54.286794334535 43.446492595068 
44.041815511536 54.254153493334 43.456050022084 44.038369664951 54.251602468608 43.456873130018 44.022191925725 54.239620880262 43.460736757826 
 43.99149075027 54.216570854472 43.468021721217 43.984769940031 54.211486809142 43.469610705069 43.942471130909 54.181525287129 43.479919283155 
43.926320371792 54.169878203242 43.483824045066 43.889941343692 54.145361082718 43.492879196922 43.865135463229 54.128225211544  43.49899038442 
43.833452456565 54.107756300254 43.507010273717 43.800051051047 54.085732762176 43.515397908098 43.773198958249 54.069447265666 43.522355659321 
43.723749146669 54.040377236998 43.535308072976 43.720496785117 54.038569139867 43.536175677471 43.711153701262  54.03342391009 43.538675449303 
43.668780021318 54.009492107066 43.549922407891 43.654130949641 54.001445840957 43.553844985392 43.617605130173 53.982568866792 43.563804821194 
43.594116780325 53.970674126712 43.570246566105 43.564342480841 53.956523796515  43.57855257946  43.53462850442 53.942660877486 43.586880904534 
43.507879043888 53.931236684568 43.594538012629 43.474957289408 53.917687627503 43.604039287092 43.448279403945 53.907574236575 43.611869566702 
43.414103164963 53.895365484544 43.622013732999 43.384890948334 53.885727129292 43.630805059015 43.351975871994 53.875623734069 43.640825213357 
43.317178596923 53.865904869086 43.651563918115 43.288108028533 53.858537886736 43.660649134895 43.243468622822 53.848533156813 43.674797778447 
 43.22257620792 53.844449814691 43.681510346081 43.161163127062 53.834795180783 43.701597111401 43.155020269679 53.834015423701 43.703634423184 
 43.13840334438 53.832635508737 43.709255850557 43.086975674812 53.827876956765 43.726579790479 43.066487111267 53.826907949297 43.733621767311 
43.020021947095 53.825853931223 43.749764959348 42.961198868558 53.827826834523 43.770701893717 42.955001176328 53.827922738415 43.772890905342 
42.949110856237 53.828307655751 43.775015792141 42.894098498606  53.83267616694 43.794978090029  42.84671707229 53.839219478797  43.81259200214 
42.843735558219 53.839581754511 43.813692888718 42.840428726145 53.840254938132 43.814954946256 42.798254380144 53.849279999681  43.83111732989 
42.773970832942 53.856095494011 43.840668360033 42.753553659944 53.861456919747 43.848642889365 42.717397795106 53.873960328902 43.863219813473 
42.707300234073 53.877175247128 43.867248932952 42.661483247517 53.895255432135 43.886059125324 42.660397551697 53.895648538856 43.886499514398 
 42.65512210321 53.897958998907 43.888699944683 42.614732362489 53.915736048793 43.905560094288 42.606995467393  53.91975918812  43.90888321643 
 42.57031295781 53.937238768921 43.924397659728 42.551032716348 53.948111404076 43.932806965509  42.52723038419 53.960248172223 43.942994103456 
42.493711504347 53.980600997645  43.95783319859 42.484282488641  53.98575342829 43.961920840398  42.45565938827 54.004131713453 43.974743529176 
42.441992776795 54.012936717468 43.980870483858  42.43806458293 54.015912203572 43.982698818342 42.402051523985 54.040923860248 43.999117752192 
42.387086479404 54.053064311739 44.006204822245 42.364274839361 54.070115068589 44.016787704603 42.337154889855 54.093797051247  44.02988528899 
42.328848578016 54.100497190497  44.03381314302 42.313696819468 54.114606066159 44.041263485196 42.294398634612 54.132528077054 44.050745440878 
42.285511338391 54.141678957631 44.055247859397 42.259160744208 54.167064208645 44.068333162269  42.23678584097 54.190647465198 44.079750979263 
42.222188915187 54.204742061668 44.087004494422 42.190203104093 54.238699718125 44.103363695159 42.184429219488 54.244247450565 44.106228705315 
42.150104499121 54.280421870089 44.123743857232 42.144158602055 54.286669633673 44.126775112421 42.143204805405 54.287746462136 44.127272649865 
42.103147191222 54.329264720293 44.147607587149 42.095245890737 54.337984835541 44.151698900483 42.063122180029 54.369483668624 44.167734539718 
42.027047845768 54.405633989526 44.185859910706 42.024745091833 54.407825812308 44.186999403828 42.023250385178  54.40926275192 44.187741197157 
41.984732556686 54.447684665851 44.207067507791 41.965626865198 54.466376007959 44.216598302026 41.945240863831 54.486658294705 44.226818963195 
41.908831880065 54.522213322071 44.244971698683 41.906281393347 54.524717069385 44.246245295226 41.900065827863 54.530763928823 44.249340774859 
41.866392756816 54.562671179217 44.265981799178 41.852546624853  54.57536781176 44.272760423931 41.825271881431 54.600774323999 44.286173187294 
41.796553731815 54.626600716041 44.300155894901  41.78269529108 54.639201384742 44.306924321889 41.739781817646 54.676887292444 44.327681540582 
41.738587006856  54.67795478034 44.328262226605 41.734298806599 54.681618473606 44.330320976521 41.692963705689 54.715829315026 44.349998741068 
41.679786062437 54.726165176301 44.356185709529 41.645507230007 54.753616436776 44.372365214925 41.613889408316 54.777600377152 44.387086586634 
41.596112540704 54.791307961405 44.395397263876 41.550796628019 54.825232618937 44.416428433644 41.541036272382 54.832102731344 44.420892160985 
41.537445595191  54.83444424143 44.422506174222 41.484631650735  54.87272284385 44.446826699975 41.478454225193 54.877158169249 44.449665022266 
41.478035428983 54.877488358701 44.449861907426 41.422893403234 54.916920434402 44.475173742153  41.42130407703 54.918194050648 44.475924027606 
41.370045684834 54.955317377912 44.499524019111 41.368897417968 54.956267097772 44.500070560176 41.318360477803 54.993725350866  44.52346808912 
41.317988761905 54.994043102942 44.523646574425 41.284167568033 55.019748582895 44.539401431038 41.267743767913  55.03219795921 44.547047046676 
41.267526463902  55.03234058411 44.547144864104 41.217300962548 55.071215255556 44.570647383184 41.217121936637 55.071334598088  44.57072824856 
41.197902032017 55.086258574671 44.579729228429 41.166571186515 55.110532348312 44.594393755389 41.166318579262 55.110767315311 44.594517927736 
41.117231790303 55.151087640146 44.617839604508 41.115119424642 55.153310996962 44.618917068685 41.071201061896  55.19473113128 44.640591733878 
41.064300971384 55.203480113488 44.644336132273 41.028718568337 55.241829624656 44.662621575737 41.013880129555 55.264500661727 44.671257179857 
40.989641692152 55.293847024667 44.684200612272 40.965214854749 55.339973690205 44.699748491272 40.956953970335 55.350156226062 44.704187186563 
40.946810699596 55.380572000076 44.712346998807 40.934179015935 55.409208349261 44.721110715988 40.932239127766 55.421588422711 44.723664064918 
40.918438903049 55.469270308635 44.735718778576 40.922091213682 55.517667068322 44.741758284808 40.921719427837 55.525204483681  44.74302890827 
40.924052834061 55.529766000044 44.742900233652 40.933603766576 55.578333928506 44.746896059116 40.946349758523 55.598294470617 44.745443455177 
40.957127113725 55.630308614424 44.746504901647 40.974209727421  55.65505219592 44.744254290344 40.984770149851 55.683098808087  44.74479168337 
41.003186852646 55.713057203031 44.742861838765 41.012939068577 55.738053759336 44.743221416875 41.034590703142 55.775488789193 44.741287559042 
41.042143613376 55.794519753658 44.741516368094  41.06820213895 55.840606190706 44.739345013828 41.072839765264 55.852133244608 44.739461559423 
41.100436348236  55.90770075983 44.738184763131 41.102007126435 55.912048090709 44.738291262274 41.121550834065 55.959899440262 44.738672655253 
41.127586423916 55.974636450027 44.738784283287 41.128150243718 55.975920899508 44.738780760918 41.148775889974 56.039678171564 44.741188626268 
41.150171275067 56.043887175682 44.741335738731 41.165034012485 56.106881980457 44.745650223636 41.166079926285 56.111131416493 44.745926066691 
 41.17775549293 56.175082722931 44.751503482448 41.178275986005 56.177727675732 44.751720963992 41.189160941096 56.243157059287 44.757799359156 
41.189298699402   56.2439003727 44.757863466198  41.19384963004 56.272831995073 44.760643206972  41.19969490847 56.309900402097 44.764199662587 
41.199822940558 56.310862202113 44.764300232463 41.209662257078  56.37555612168 44.770634244198 41.209960593235 56.377915350689 44.770886449828 
41.218661488457 56.440596251565  44.77731537677 41.219087944684 56.444342366782 44.777732423909 41.226350619023 56.504202194783 44.784239219056 
41.226893097968 56.509612953518 44.784867368309   41.2327595358 56.565637932352 44.791283947886 41.233405028826 56.572938131663 44.792161768325 
41.237894636149 56.622424917987 44.798072390668 41.238681850873 56.632672995297 44.799346410568 41.241874748236  56.67293380089 44.804316384893 
41.243275912004 56.692173949046 44.806735220933 41.245326822573 56.718407419118 44.809983963806 41.247054632455 56.743987608371 44.813247247497 
41.249296631699 56.772787889194  44.81681722529 41.252907251705 56.830342239441  44.82425662155  41.25331410201 56.835498683014  44.82489388699 
41.256788196275 56.885259668402 44.831202287205  41.25813719029 56.904166248167 44.833588968706 41.258243413704 56.905862473744 44.833808286371 
41.263863953615 56.975913190961 44.842432805006 41.263984884226 56.977490705581 44.842629005221 41.265582498151 56.994491699103  44.84464019991 
41.270526237075 57.046255272057 44.850735894942 41.271155279781 57.051748814012 44.851346195246 41.277621392847 57.108657855361 44.857686106055 
41.281561355188 57.138545055182 44.860824758951 41.284789435838 57.162234322925 44.863275623568 41.288490841996 57.185819486455 44.865544670796 
41.292115629019 57.207514335139 44.867554653735 41.299113589639 57.245131860256 44.870789747347  41.30151517944 57.256842693466 44.871718622396 
41.311976243607  57.30382713601 44.875155588858  41.31371137706 57.310893166828 44.875615678708 41.327821749798 57.366248121896 44.879038461166 
41.328398749836 57.368312172551 44.879148244164 41.333659422982 57.386257773789 44.880017118701 41.345488568818 57.426576611913 44.881965782495 
41.346893061603 57.431173799465 44.882168419707 41.365142658451 57.484868966586 44.883887850999 41.369868075268  57.49797615164 44.884212620051 
41.387540687499 57.542145064606 44.884693460421 41.397514348303 57.565441010854 44.884718092885 41.412716971994 57.597638281372 44.884254603951 
41.429751295516 57.631136276088 44.883345209807 41.440369383793  57.65021595545 44.882505948457 41.465056143722 57.691745725036 44.880126603877 
41.469118803928 57.698073829315 44.879658438793 41.484720238869 57.720373221615  44.87755777871  41.49940836465 57.741361617236 44.875579246041 
 41.50448240888 57.747819333822 44.874775836061 41.531409200204 57.780158675833 44.870220330758 41.558315756863 57.809101676068 44.865158162592 
41.565904585734  57.81684795907 44.863667343147 41.579904911775 57.829637972267 44.860689966095  41.60443849822 57.851943196701 44.855456279482 
41.616718847427 57.862225770151 44.852703069782 41.645798755013 57.885409136798 44.846007110112 41.671722473917 57.904552222949 44.839807351124 
41.687838292829 57.915940173492 44.835875649306 41.720789619866 57.937546643081 44.827582838484 41.734816630599 57.946457070636 44.824009236603 
41.765644429778 57.964632183816 44.815942421622 41.800203719759 57.984199066624 44.806776918666 41.807628844414 57.988171791606  44.80477271242 
41.818122644313 57.993587177624  44.80191007005 41.850975613673 58.010606304744 44.792957844502 41.873814741859 58.021824838564 44.786641594352 
41.894094975671 58.031256474386 44.780952847594  41.93751263594 58.050645628811 44.768652437695 41.938868223214 58.051248153993 44.768267963859 
41.939463375135 58.051510208175 44.768098791343 41.986399595388 58.070547210501 44.754510599889 42.006047779316 58.078438093717 44.748810543707 
42.036008956381   58.0891833146 44.739923874427 42.074161979928 58.102769480274 44.728592785477 42.087327732752 58.106777075659 44.724579713915 
42.131930647336 58.120069243222 44.710941162019 42.140286295922 58.122590891298 44.708390971418 42.142853354612 58.123354598931 44.707605826197 
  42.1949515364 58.135567343875 44.691174223069 42.211570555962 58.139363166794 44.685917513684 42.250992009653 58.145956538161 44.673083591715 
42.279860171337 58.150622783464 44.663660852086 42.308264248958 58.153559559162 44.654139323938 42.347157626569 58.157365564455 44.641069038216 
42.366799379667 58.158189909621 44.634302287871 42.413039810948 58.159865450164 44.618331962249    42.426524806 58.159630164708 44.613565064551 
42.477153490457 58.158481361769 44.595627852614 42.487236985793  58.15770951124 44.591973229395 42.539193998325 58.153441057433 44.573098056634 
42.548733801703 58.152133208585 44.569553111491 42.598814622882 58.144903133676 44.550888211347 42.610383394513 58.142605427774  44.54648165328 
42.655828231957 58.133225607785 44.529118130439 42.672016960492 58.129049879861 44.522806540571 42.709950708062 58.119021679539 44.507980256866 
42.733382843757 58.111690708291 44.498649974646  42.76139377844 58.102775903006 44.487473602791 42.795163498586 58.090568503986 44.473778651739 
42.810672246712 58.084919560024 44.467482785423 42.857800628733 58.065921062339 44.448073568102 42.858498671985 58.065644838471 44.447786870473 
42.858731617438 58.065545103667 44.447690053091 42.905707997214 58.045378740161 44.428157504558 42.924515894599  58.03675963454 44.420254813948 
42.952773986605 58.023780834604  44.40837696745 42.991859543574 58.004784616325 44.391789977188 42.999725481889 58.000948854739 44.388449923821 
43.016895311526 57.992151265847 44.381094961863 43.046771582478 57.977230298546 44.368355575443 43.060288350632 57.970226926675 44.362553726038 
43.093882873898  57.95275909897  44.34812450254 43.130015127404  57.93341736958 44.332521434526 43.141280274496  57.92739694859 44.327658272672 
43.162903465873 57.915595593249 44.318286439405 43.188494605126 57.902125252797 44.307269957206 43.201559769878 57.895105047489 44.301624009677 
43.233325561319  57.87822970705  44.28792603487 43.270325293761 57.858150779928 44.271907090308 43.273253972726 57.856626455426 44.270648958963 
43.275963847877 57.855205605127 44.269483248961 43.311447160882 57.837071589945 44.254290556445 43.333114132129 57.826157899171 44.245037639123 
43.351840719708 57.816770967077 44.237047328041 43.384611849726 57.800635023868 44.223108471182 43.396815802038 57.794488707423 44.217896878732 
43.439318892355 57.773428231187 44.199798563723 43.445553195103 57.770191253537 44.197121558919 43.495326269602 57.744502575542 44.175772413388 
43.496012590208 57.744125562827 44.175474582472 43.503364883846 57.740098741677 44.172285843533 43.547284192868 57.716327451385 44.153280575118 
43.551089460913 57.714293596497 44.151637809953 43.598701838641 57.686914255785 44.130791014805 43.605680044838 57.682965864162 44.127745391082 
43.649725396744 57.656349471682 44.108265522929 43.658688917976 57.650981218085 44.104308555768 43.699504716158 57.624662975325 44.086006900368 
 43.70955478782 57.618191390282  44.08150180907 43.747639919831  57.59155025422 44.064109383425 43.757684848597 57.584467275391 44.059513611421 
43.793404967228 57.556801528396 44.042795975299 43.802878210887 57.549300929387 44.038337609947 43.839955748795 57.517033819036 44.020447668492 
43.846504762131 57.511622489666  44.01733133252 43.886490285568 57.474318238631 43.997659138814 43.892900047624 57.468486683422 43.994528092861 
43.893741640278 57.467625180464 43.994102495131 43.895696725431 57.465566112649 43.993105065823 43.939214674939  57.42341559423 43.971460403744 
43.965009134612  57.39680898601 43.958385470728 43.979129209413 57.382581559872 43.951279169066 43.996291237181 57.363855713891 43.942425103666 
44.018501989841 57.341965582176 43.931320997925 44.034275850468 57.325470759658  43.92329146624 44.056263298194 57.303087780627 43.912191155937 
44.079738320393  57.27810758623 43.900176040548 44.092310015553 57.266006112892 43.893934590325 
POLYGONS 1 462
461 0 1 2 3 4 5 6 7 8 9 10 11 12 13 14 15 16 17 18 19 20 21 22 23 24 25 26 27 28 29 30 31 32 33 34 35 36 37 38 39 40 41 42 43 44 45 46 47 48 49 50 51 52 53 54 55 56 57 58 59 60 61 62 63 64 65 66 67 68 69 70 71 72 73 74 75 76 77 78 79 80 81 82 83 84 85 86 87 88 89 90 91 92 93 94 95 96 97 98 99 100 101 102 103 104 105 106 107 108 109 110 111 112 113 114 115 116 117 118 119 120 121 122 123 124 125 126 127 128 129 130 131 132 133 134 135 136 137 138 139 140 141 142 143 144 145 146 147 148 149 150 151 152 153 154 155 156 157 158 159 160 161 162 163 164 165 166 167 168 169 170 171 172 173 174 175 176 177 178 179 180 181 182 183 184 185 186 187 188 189 190 191 192 193 194 195 196 197 198 199 200 201 202 203 204 205 206 207 208 209 210 211 212 213 214 215 216 217 218 219 220 221 222 223 224 225 226 227 228 229 230 231 232 233 234 235 236 237 238 239 240 241 242 243 244 245 246 247 248 249 250 251 252 253 254 255 256 257 258 259 260 261 262 263 264 265 266 267 268 269 270 271 272 273 274 275 276 277 278 279 280 281 282 283 284 285 286 287 288 289 290 291 292 293 294 295 296 297 298 299 300 301 302 303 304 305 306 307 308 309 310 311 312 313 314 315 316 317 318 319 320 321 322 323 324 325 326 327 328 329 330 331 332 333 334 335 336 337 338 339 340 341 342 343 344 345 346 347 348 349 350 351 352 353 354 355 356 357 358 359 360 361 362 363 364 365 366 367 368 369 370 371 372 373 374 375 376 377 378 379 380 381 382 383 384 385 386 387 388 389 390 391 392 393 394 395 396 397 398 399 400 401 402 403 404 405 406 407 408 409 410 411 412 413 414 415 416 417 418 419 420 421 422 423 424 425 426 427 428 429 430 431 432 433 434 435 436 437 438 439 440 441 442 443 444 445 446 447 448 449 450 451 452 453 454 455 456 457 458 459 460 

CELL_DATA 1
FIELD FieldData 6
ClosedSection 1 1 int
1 
SectionArea 1 1 double
         13.491 
SectionLength 1 1 double
        13.7237 
SectionMinSize 1 1 double
        1.71273 
SectionMaxSize 1 1 double
        2.44805 
SectionShapeFactor 1 1 double
        0.69963 
