# vtk DataFile Version 4.2
vtk output
ASCII
DATASET POLYDATA
POINTS 827 double
45.072259239143 25.483266744888 26.741914549944  45.05354503665 25.471238519859 26.712843327835 45.043434291698 25.464128230925 26.696461021675 
45.034679879503 25.458129750207 26.682450915237 45.014919084075 25.444784043129  26.65104144039 44.992187827294 25.429829618175 26.615349574736 
44.986664800623  25.42587178327 26.606319127438  44.98192882277 25.422527145384 26.598629900874 44.959232474689 25.406811604045 26.562126515144 
44.933603239655 25.389234754101 26.521093336607 44.931850871989 25.387935340103 26.518179884574 44.930276354656 25.386770446962 26.515565041547 
44.904939376595 25.368406191848 26.473908311998   44.8779623028 25.349028069948 26.429748307814 44.877071177585 25.348400992402 26.428303985383 
44.876089899726 25.347723872246 26.426728347321 44.848880126641 25.327516153539 26.381455491705 44.823030551881 25.308650547465 26.338812558973 
44.819622517962  25.30623800375 26.333273026422 44.815971192319 25.303724310316 26.327416571513 44.789907996023 25.284291577256 26.283966878143 
44.767503158381 25.267905264323  26.24696818034 44.760875980251  25.26319795285 26.236178532035 44.752525607275 25.257306578718  26.22262748416 
44.733255289966 25.242912190517 26.190472929495 44.720541784983 25.233332861064 26.169167735361 44.706310798647 25.223219694809 26.145993049603 
44.684737309244 25.207089327425 26.109978201898 44.679206878465 25.203302778365 26.101130764679 44.651528089334 25.183235798691 26.055617901823 
44.651449889999 25.183183707071 26.055494402175 44.651007408751 25.182871604176 26.054776425899 44.623026100053 25.162981247317 26.009203606242 
44.618318050559 25.159494287945 26.001380679929 44.594630077529 25.143397788717  25.96362016047 44.585091944525 25.136630909277 25.948100157317 
44.566384234409 25.124319057997 25.918721031337 44.551814291552 25.114304212442  25.89536914635 44.538458756478 25.105662805411 25.874558854612 
44.518768331096 25.092293009137 25.843182104956 44.510771105742 25.087131972438 25.830735807954 44.485952532355 25.070257412218 25.791162200836 
44.483015838777 25.068343529778 25.786571109149 44.466551447091 25.057043670398 25.760201869289 44.455149392159 25.049213909631 25.741935688127 
44.453119554429 25.047775884464 25.738635100804 44.426999157842 25.029780496184 25.696725294519 44.419704786626 25.024653017108 25.684908775171 
44.398523635903 25.010135010872 25.651006275489 44.385120455845 25.000868514849 25.629465144868 44.369686687537 24.990448863633 25.604937546954 
44.348714396789 24.976341056245 25.571664402652 44.340381628097 24.970865799881 25.558587968694 44.312598661583  24.95273587293 25.515127505746 
44.310565219889 24.951414622515 25.511952903749 44.309934428157 24.951010737316 25.510974719516 44.280032648753 24.932322963216 25.465111147624 
44.268449533638 24.925215542408 25.447490396455 44.248707651571 24.913442915665 25.417834967745 44.224408169601 24.899272958175 25.381687414223 
 44.21645989605 24.894786304841  25.37002752348 44.195379086392 24.883199769935 25.339448622579 44.183130963618 24.876510617149 25.321729231072 
44.178331333145 24.873975988385 25.314881307135 44.148632716716 24.858823155557 25.273094815372 44.130385608066 24.849850614981 25.247793708874 
44.113025378472 24.841638979832 25.224081210593 44.080804029021 24.827004648691 25.180740252017 44.076239088953 24.825019997848 25.174697907577 
44.063232567944 24.819595654972 25.157736466125 44.038555415887 24.809373724228 25.125632608589 44.029700324572 24.805870919684 25.114295075288 
44.000251066218 24.794768026913 25.077193641183 43.977553632434 24.786628575342 25.049060163883 43.961892909195  24.78130648612 25.029973478245 
43.924992921034 24.769428147423 24.985732234191 43.924090667449 24.769152101747 24.984666382699 43.921779846325 24.768488788814 24.981984828696 
43.886350328117 24.758354818344 24.940910949247 43.870903911136 24.754235768038  24.92333422095  43.84868842066    24.748631808 24.898408620133 
43.813288609585 24.740384230845 24.859444068557 43.810236939646 24.739719888825 24.856136637702 43.803844844533 24.738439502218 24.849331639563 
 43.76987766876 24.731649530794 24.813185703577 43.753790991687 24.728716009132 24.796378950467 43.727621958988 24.724312917493 24.769446263382 
43.693727996467 24.719177954142 24.735190685296 43.683297458005 24.717723082011 24.724787376847 43.648362352813 24.713429848492 24.690583855989 
43.636561674168 24.711975871326 24.679026130445 43.633047784377 24.711597027113 24.675644367431 43.586941743142 24.707189707293 24.631894613512 
43.569875556742 24.705768624582 24.615932958247 43.534207644921 24.703184449849 24.582999818949  43.50677634942 24.701522752219 24.558031663404 
43.473551744888  24.70000287022 24.528334843183  43.45273187623 24.699187534277 24.509877088627  43.41340956343 24.698190562466 24.475615982742 
43.401395883072 24.697952162813 24.465221730005 43.355412479806 24.697691316164 24.426156833222 43.352329082076  24.69768710795 24.423552029142 
43.337391486585 24.697887245667 24.411176649861 43.303890465976 24.698337741511 24.383423805775 43.296420907356 24.698547535968 24.377356710356 
43.254375538949 24.699946754886 24.343446869704 43.230391473716 24.701017457301 24.324404709398 43.202401167804 24.702449947253 24.302383922786 
 43.16141310959 24.705005102512 24.270642880568 43.139005715584 24.706662840225 24.253578904304 43.097057699364 24.710038779037 24.221935236822 
43.069381623198 24.712597278899 24.201423561227 43.036107859657 24.715855601852 24.176964726568 42.990284492193 24.721085031342 24.144100991933 
42.988508204153 24.721295437688 24.142835569405 42.986485981223 24.721560518212 24.141423165473 42.943546367131  24.72727957942 24.111532224261 
42.922557817261 24.730308740065 24.097180010431 42.897737012356 24.734110306947 24.080449580892 42.868037929832 24.739007716236 24.060816214933 
 42.84798141303 24.742568359958 24.047837197772 42.811864602044 24.749239343433 24.024751539937 42.794395963977 24.752722574007 24.013869284253 
 42.75355245358 24.761142928385 23.988730596058 42.738736826104 24.764444521997 23.979884869041 42.693974054539   24.7746612107 23.953425933448 
 42.68151179801 24.777745859347 23.946325044436 42.633624071336 24.789918612277 23.919392166074 42.623367937176 24.792750479752 23.913872348481 
42.572701462484 24.807134614663 23.887039576049 42.564970721865 24.809518105814 23.883153950358 42.511511966344 24.826429865015  23.85675928819 
42.506932400822 24.828003997218 23.854636710972 42.449705371968 24.848126936263 23.828612389042 42.449175203757 24.848334505731 23.828394654636 
42.393490270199  24.87019351546 23.805588929266 42.386900098562 24.872844281897 23.802960430244 42.338121758922 24.894298904143 23.785532059936 
42.322382776704 24.901362185725 23.780063980515 42.283285620527 24.920562322641 23.768308535554 42.256594988247 24.933826884458 23.760456992093 
42.228427603102 24.949078131811 23.753555228281 42.191803129569 24.968995734231 23.744677664405 42.173430729453 24.979637527938 23.740942786802 
42.129151439982 25.005278762948 23.731934146004 42.118937938823 25.011491146588 23.730185413164 42.068478392951  25.04202670832 23.721372855376 
 42.06533735831 25.044001192084  23.72090570488 42.040449418255 25.059509414429 23.717053349219 42.011664704707 25.077472162507 23.712626945365 
42.008138303771 25.079641187768 23.712049773792 41.959569189538 25.110413483978 23.705092939095 41.951415960297 25.115477462206 23.703812710028 
41.907738974016 25.143049705217 23.697445548232  41.90335677254 25.145784710393 23.696772052236 41.893122319749 25.152201274976 23.695231250982 
41.860118138253 25.173029827386 23.690413100391 41.834274148301  25.18928700896 23.686582056359 41.815125180251 25.201343748167 23.683755691606 
41.797307006339  25.21242188147 23.680970291258 41.767001472322 25.231412430751 23.676397034309 41.734777494231 25.251390074396  23.67129664094 
41.719612605929 25.260821766858 23.668929538904 41.700059099605 25.272808171613 23.665684324291 41.674155358304 25.288775247535 23.661482355571 
41.661725674411 25.296381193127 23.659404516694 41.630321043433 25.315629814541 23.654189561953 41.613366033308   25.3260257715 23.651378309805 
41.579308202496 25.346940347973  23.64576669035  41.56515418471  25.35561137781 23.643411574496 41.523557143153 25.381187442668 23.636592801702 
41.515017230859 25.386416815861 23.635169237155 41.465807350558 25.416758317688 23.627196075145 41.462325496619 25.418896166058 23.626622021616 
41.407633582303 25.452844150059 23.618010796748 41.351394718177 25.487985876127 23.609414032661 41.350864134874 25.488321803736 23.609337771168 
41.347938135044 25.490167513801 23.608909672205 41.300291114804 25.520265834528 23.601985741255 41.287040637339 25.528647989973 23.600073381604 
41.252575080998  25.55074740383  23.59542706431 41.213657245264 25.575747267579 23.590230955934 41.203504598705 25.582269373463 23.588875752507 
41.193508488921 25.588751441241 23.587608314623 41.154326844358 25.614376910505 23.582880974399 41.113935873959 25.640973289371 23.578206597392 
41.105132437557 25.646796531941 23.577216975827   41.0963512343 25.652657683761 23.576287988875  41.05641205935 25.679466065741 23.572228842306 
41.017973973432 25.705440347062 23.568513929581  41.00810916036 25.712143529398 23.567601520572 40.997631112887 25.719314092499  23.56668839504 
40.960262038441  25.74500059713 23.563556989172 40.927362105246 25.767754213421 23.560953752332  40.91309461731 25.777702950978  23.55991468952 
40.896585352399  25.78930615126 23.558813207016 40.866688866957 25.810434098198 23.556946502143 40.842907720905 25.827392608327 23.555629902417 
40.821221485543 25.843005851941 23.554593504602 40.792761554399 25.863711262052 23.553471350008 40.776807161107 25.875434104513 23.552969969945 
40.765062019631 25.884179882013 23.552728789699  40.73225297087 25.908833691496 23.552301717553 40.690415801152 25.940675846026 23.552203854971 
[...]
CELL_DATA 1
FIELD FieldData 6
ClosedSection 1 1 int
1 
SectionArea 1 1 double
        47.0516 
SectionLength 1 1 double
        25.1377 
SectionMinSize 1 1 double
        3.04782 
SectionMaxSize 1 1 double
        4.69384 
SectionShapeFactor 1 1 double
       0.649323 
