# vtk DataFile Version 4.2
vtk output
ASCII
DATASET POLYDATA
POINTS 472 double
50.288442811942 44.461355790792 37.446706153642 50.251686230826 44.482941909914 37.442742088706 50.246552163843 44.485728332549 37.441979246302 
50.236671327571 44.490497483625 37.439968276104  50.20741470673 44.504177759651 37.433610619546 50.167319664125  44.52028457375 37.422481726611 
50.163579937236 44.521757496713  37.42141684129 50.144444564211 44.528124392305 37.414898175018  50.10820047279  44.53973142805 37.402137436659 
50.103318968298 44.540947308477 37.400101020211 50.091804561016 44.544400738963 37.395833014503 50.048107733031 44.556890937891 37.379073135219 
50.019262492766 44.565195348998 37.368063857496 49.999303763006 44.569858996393 37.359456286402 49.983397744209 44.573262001307 37.352309630306 
 49.94953876318 44.580918796484 37.337474225933 49.900692030768 44.591017617451 37.315205489927 49.890420784318 44.593491691761 37.310843552194 
49.881158531642  44.59605240836  37.30721164775 49.826754406237 44.604747809314 37.280074851717 49.798264420023 44.610510071935 37.266969569167 
49.768505594945 44.614007727208 37.250974612998 49.722510442525  44.62063874379 37.227373330671 49.712600546586  44.62135929367 37.221640623673 
49.684114732261 44.624261869057 37.205922460943 49.658669970843 44.626454469221  37.19151636733 49.649328199551 44.627502444386 37.186449567696 
49.606003959383 44.629111636471 37.159977849119 49.575495274311 44.631150594317 37.142165067298 49.553938897108 44.630719125128 37.127866861784 
49.504452558218 44.631065502696 37.096265659009 49.502031138991 44.631021080759 37.094663246844  49.50097175226 44.631030304513 37.093988393259 
49.451734234787 44.626472484228 37.058062124249 49.430725672744 44.625099396092 37.043256014062 49.401801264195 44.620082379549 37.020011425436 
49.367820794801 44.614917794998 36.993370775783 49.352238103405 44.611632181891 36.980315015056  49.30992106787 44.603522116729 36.945603353587 
49.303146249552 44.602234539125 36.940056024432 49.253379607495 44.593968807272 36.900397090361 49.253194014533 44.593939236177  36.90025033867 
49.251518878639 44.593710249608 36.898960459717 49.202765068345 44.586315044883 36.860751003154 49.197213938625 44.585558936873 36.856479037284 
49.151168552139  44.57997432894  36.82167251285 49.139124685172 44.578671500828  36.81271277071 49.099632371153 44.574813527684 36.783712129602 
49.078015333091  44.57364265228 36.768698511613 49.048805469691 44.571882143462 36.748248325545 49.013328077217 44.573689688122 36.727019136711 
48.999942178402 44.573766414988 36.718455592108 48.965166332495 44.577041661577 36.699021303263  48.95128463345 44.577862058838 36.690818161513 
48.946626615249 44.578505920307 36.688402701914 48.902184924644 44.584341900164 36.665076212536 48.884840084097 44.587950840615 36.657189892003 
48.853523708889 44.594751999895 36.643211838793 48.826389604483  44.60236546462 36.632674256326 48.804030579538 44.609064166389 36.624379860298 
48.768902533676 44.621164111874 36.612789788729 48.753839478397 44.626775346538 36.608206557535 48.711563934656  44.64355657116 36.596288110877 
48.702768035722 44.647374772668 36.594107138349 48.653710151012 44.669581928789 36.582776923179  48.65086862966 44.670991930331 36.582233817993 
48.624005410152 44.684648937677 36.577398590212 48.598420904116 44.697395546201 36.572555432204 48.595617976721 44.698839635011 36.572068397013 
48.545802065668 44.726960108502  36.56565779423 48.538370464657 44.731199883726 36.564742361426 48.496245643176 44.757672606065 36.561785314827 
48.487293047959 44.763530821058 36.561369143757 48.453681298828   44.7878770473 36.561957943951 48.446793523151  44.79310727985  36.56229917832 
48.420044553122  44.81439512692 36.564517075538 48.391237369735 44.841080514978 36.570344234995 48.381654954742 44.850783084047 36.573038020859 
48.357769537682 44.879935007189 36.584295632442 48.346310899932 44.893271990554 36.589103444021  48.34224476905 44.898488658584 36.591252194111 
48.313625351389 44.941347086807 36.611992893903 48.303000408726 44.957767222881 36.620158387825 48.283150674903 44.992066822912  36.63872720709 
 48.26880964972 45.016805767095 36.652104554439 48.253942952382 45.044391929829 36.667747017131 48.237017967312 45.075665351393 36.685434409595 
48.226263877496 45.097855815986 36.698794351727 48.208361161714 45.134209805193 36.720497987939 48.201024760771 45.151398244059 36.731487263185 
48.184743819307 45.187869153098 36.754343860667 48.180355245748 45.202118203901 36.764545976084 48.171484851148 45.230635253191 36.784907393789 
48.167205316386 45.255766645585 36.805133211886 48.164240610561 45.267242842131  36.81371755204 48.163150354071 45.278029048474 36.822879796964 
48.157978119614 45.307408805573 36.846415540441 48.157478000273 45.342089571589  36.87781322435 48.156782222024 45.347783291693 36.882572134488 
48.157188680828 45.359263631798 36.893334619578 48.155418739849 45.388614194038 36.919038093178 48.156916033496 45.401699201976 36.931971837726 
48.157929109354 45.428061116062 36.956736795927  48.16285444029  45.45212525967 36.981923483087 48.164861693565 45.465647807144 36.995586333743 
48.173510480229 45.495244277155 37.028234660149  48.17545778667 45.502688217685 37.036299137218 48.188012365114 45.533070899548 37.072185743058 
48.191952447833 45.541169699767  37.08213449139 48.209975050074  45.56667503973 37.117086908568 48.220827309372 45.580557340781 37.136783710502 
48.239449538908 45.597882118939 37.164640648199 48.259979276426 45.615516545862 37.194011118165 48.279686815947 45.625803796276 37.216131294417 
 48.30169753709 45.639930358512 37.243248561577 48.323603836092 45.649400430005 37.266039486914 48.342995619709 45.660376816189 37.288586312851 
48.367097349118 45.669183928487 37.312186894875 48.383813146421 45.677361114447 37.330447498795 48.410279212336  45.68583747674 37.355270529895 
48.425028936439  45.69226380352  37.37066164581 48.453523194053 45.700710384265 37.396765593569 48.466304300193 45.705767535471 37.409634681455 
48.496820995366 45.714327122172 37.437146433027 48.507834738289 45.718253536845 37.447841384217  48.54032585091 45.726583379806 37.476416476302 
48.549861152617 45.729660071517 37.485380666477 48.583929955364 45.737728999041 37.514734704643 48.592344291492 45.740254993999 37.522472200636 
48.627153859579  45.74834278519 37.552321275695  48.63504091719 45.750705677664  37.55956950496  48.66936389112 45.759083691744 37.589370181549 
48.677343798657 45.761652701686 37.596866820067 48.708190188988 45.770263629938 37.624638179304 48.718152478587 45.773705271355 37.634211566727 
48.742506689589 45.781713351618 37.657244172994 48.762108271411 45.789241947667 37.676772845219 48.773852438265 45.794057080344 37.688751762746 
48.784168218792 45.797990512239 37.699002955934 48.808974353809 45.810090394061   37.7260695533 48.837371690258 45.821493165165 37.754814824392 
48.850703618713 45.827961350294 37.769329766627  48.88175272893 45.842116817075 37.802303108271 48.890912572928 45.847024617259 37.812699929871 
48.926737293166 45.866328654303 37.853462538969 48.926870382682 45.866403120268  37.85361648909 48.960780585618 45.887013917067 37.894339469353 
48.977064207427 45.895207177109 37.912336027911 48.999598069913 45.908459961222 37.938991525739 49.027598972247 45.923059603171 37.970405073282 
49.041740338543 45.931552578862  37.98729403685 49.076327500891 45.950766869775 38.027176353049 49.083563549331 45.955274522029 38.035966363381 
49.121821138914 45.978012683742 38.081439111709 49.124042453624 45.979440107191 38.084177401249 49.147677467806 45.994240915512 38.112959004503 
49.163442019913 46.004204509619 38.132239980293 49.164977594651 46.005139360226   38.1340854524 49.201907799243 46.029080841608 38.179802654248 
49.207050803453 46.032285608028 38.186051014249 49.239962453737 46.053651892892 38.226820937785 49.249234864916  46.05943651851 38.238092339201 
49.277833133371 46.078003233104 38.273519604543 49.292288470132 46.087021154928 38.291091209049 49.315535050023 46.102079038643 38.319857407737 
49.337897067686 46.115854179907 38.346879834311 49.354253708037 46.126286319417 38.366971247103 49.389019565109 46.147308886434 38.408622732175 
49.394442458715 46.150697672341 38.415219927735 49.404124449137 46.156356403421  38.42664035457 49.434199278111 46.174117869774 38.462283472762 
49.464486558414 46.190123012209 38.496457223242 49.476236387817 46.196528487694 38.509894376764 49.483864689418 46.200377670109  38.51833512524 
49.520269628403 46.218498660832 38.558389911528 49.544426273988 46.229760692563 38.584271269793 49.563112866169  46.23839368811 38.604219909016 
49.600113491165 46.254233725869 38.642572664458  49.60475291614 46.256208038359 38.647370806096 49.620106916879 46.262245452545 38.662795958979 
49.645796583502  46.27246171583 38.688709598078 49.653811377322 46.275325051687 38.696497938655 49.685905966167 46.286791832101 38.727686432163 
49.707336765224 46.293490448314 38.747635795608  49.72533585753 46.299160283431 38.764430795579 49.760445278809 46.308778258177 38.795872831794 
49.764055017056 46.309763864545 38.799102534017 49.773786488786 46.312034019842 38.807455564471 49.802335702094 46.318753850052 38.832015610846 
49.813177884626  46.32087202761 38.840946030371 49.841301383051 46.326262240879 38.864015381831 49.864378806621 46.329843004014 38.882175096977 
49.881822831139 46.332458972484  38.89581891147 49.915814093775 46.336327052753 38.921280693988 49.924499611515 46.337268127039 38.927743473964 
 49.96851122117 46.340570829544 38.959151128816 49.969381755745 46.340630695128 38.959767366892 49.975117995721 46.340844674195 38.963662876059 
50.016173682497 46.342347606896 38.991517868013 50.022469927027  46.34237044322 38.995599746553 50.064627139996 46.342330165953 39.022753733474 
50.077647615143 46.341917851274 39.030774644335  50.11430174491 46.340556449464 39.053170870648 50.133823651077 46.339253283601  39.06457031165 
50.164445196479 46.336996027849 39.082256223862 50.191257636108  46.33436874966  39.09714687934 50.214572727434 46.331983353846 39.110003027149 
50.251276611479 46.327513435611 39.129588185329 50.264541918692  46.32586243963 39.136634067837 50.308040719816 46.319753083287   39.1591023666 
50.314788521451 46.318782494265 39.162566871374 50.316899746857 46.318447527538 39.163622210488 50.366357539047 46.310626673781 39.188368580999 
50.389397838713 46.306812914476 39.199741060225 50.418733118214 46.301968985952 39.214231486201 50.468048869414 46.293634965654 39.238416881963 
50.471321330377 46.293089672812 39.240028830438 50.477535781285 46.292059441769 39.243094780586 50.523778212962 46.284003559494 39.265552322142 
  50.5477659998 46.279971204994  39.27733598275 50.575407123197 46.275428837262 39.291009519361 50.625354604524 46.267576062543 39.316042536628 
50.625662473288 46.267529074192 39.316198130565 50.626216341265 46.267448416524 39.316481595484 50.675220524163 46.259780142633 39.341074949139 
50.702385809542  46.25578522626 39.354942295093 50.722531282425 46.252849733706 39.365250944429 50.751174962739 46.248880216952  39.38009506629 
50.767725239604 46.246388614538  39.38849086096 50.780082915207 46.244640794741 39.394862775007 50.812520656839 46.240090224993 39.411622562939 
50.851326211595 46.234941349387 39.431942271589 50.858476326428 46.234038365754 39.435728097151 50.871251144077 46.232514138104 39.442573567392 
50.905837591451 46.228137496443 39.460878321922 50.925020062359 46.225783053874 39.471097297001  50.95653248376 46.222126701571  39.48807814891 
51.003486470495 46.216929447398 39.513609236021 51.008486986336 46.216328637859 39.516284978731 51.012337224851 46.215881525351 39.518359385029 
51.061124825287 46.210372345393 39.544787829561 51.114140189043 46.204435966354 39.573552392252  51.11432157731  46.20441647701 39.573651559562 
51.114508475752 46.204396050337 39.573753423544 51.167102800674 46.198050374356 39.601872064499 51.218536930801 46.191591249819 39.629138631616 
51.219392164365 46.191487345198 39.629595210733 51.220266870632 46.191372149207 39.630054021991 51.271512038436 46.184049792992   39.6564091688 
51.319754409164  46.17650677661 39.680625728967 51.323129258064 46.175990584698    39.682330333 51.326832022456 46.175351684032 39.684134204278 
 51.37479335132 46.166664726862 39.707123207619 51.416756715665 46.158087579389 39.726344041688 51.426345320275 46.156153183596 39.730759293807 
51.438292006786 46.153388452238 39.735936022263 51.478091826731  46.14394287546 39.752967103648 51.509336122851 46.135498377429 39.765395611144 
51.529736403486 46.129987412442 39.773512989906  51.55838627048 46.121106188428 39.783868681073 51.580961144725 46.114027136552 39.791954415301 
51.596846115351 46.108446772362 39.797096005883 51.630659461748 46.096596704159 39.808066660865 51.676357339472 46.078932637027 39.821384987192 
51.676556251226 46.078855482416 39.821442714219 51.676787671715 46.078758557002 39.821503325861 51.719553592541 46.060570264402 39.832451104942 
51.745831045934 46.048803460232 39.838637368204 51.765185214056 46.039731042853 39.842822588497 51.805855919412 46.019545172215  39.85059192679 
51.818203570139 46.013083799868 39.852646193212 51.873148009245 45.982806879396 39.860392263858 51.877329673749 45.980402453081 39.860890207017 
51.901951371075 45.965613027386 39.863243933804 51.941387044562 45.941978337975 39.867062281914 51.946413339606 45.938997535443 39.867577826169 
 51.96067819773 45.929696643669 39.868271540345 52.006533092344 45.899485273212 39.870214933438  52.02888747423 45.883807789802 39.870294023803 
52.057188052569 45.864348602888 39.870749449923 52.096462383543 45.835883792815 39.870045935289 52.101464031001 45.832177345464 39.869881881794 
52.104824019861 45.829577135192 39.869670784474 52.143447975215 45.800116817753 39.867637260244  52.16264693199  45.78486731088  39.86607258702 
52.189214753792 45.764559595611 39.864634314851 52.222302123039 45.737822042694 39.861520104926 52.241876855127 45.723234549436 39.860803302686 
52.268982772113 45.702704638205 39.859508866274 52.294339430341 45.681978198804 39.856906430273 52.334477695635  45.65029505463 39.853816539373 
52.342670065768 45.644097001948   39.8534315481 52.347843241883 45.640450201914 39.853432683788 52.389654940109 45.607908348166 39.850636728129 
52.420126401516 45.585488691225  39.84978459365 52.434290371039  45.57383415126 39.848260506257 52.463574822346 45.550665412673 39.845957629951 
52.478379078503  45.54008858354 39.845832231089 52.487951964962 45.533682767848  39.84614762658 52.523063317209  45.50693103716 39.844325890526 
52.557751167761 45.481890541215 39.843796157431 52.568530027374 45.473277997889 39.842871038047  52.59236178676 45.454833449365 39.841372161171 
52.616545859559 45.438782081114 39.842289408869 52.634079048555 45.427241960388 39.843043073846 52.666829562869 45.402565461696 39.841596710118 
52.712450084528 45.366637817697 39.838160630093 52.721258301215 45.357984217682 39.835926921069   52.7371470726 45.335649992518 39.825747289842 
 52.76299113542 45.308922268496 39.817970236168 52.773197558246 45.290643003771 39.807834377917 52.787988441539 45.261261523595 39.790500955433 
 52.79452337311 45.238542659302 39.773936420886 52.797277960757  45.20391646937 39.744042755423 52.797536013311 45.196656515287 39.737568985257 
52.796111135483 45.189401780915 39.730014522137 52.798840454774  45.15293016208 39.698416664447 52.798664484737 45.134358950184 39.681317279563 
52.792771156025 45.106714345271 39.652231430648 52.788134178824  45.07681008374  39.62188914949 52.784511316021 45.064312259233 39.608121500613 
52.775854208004 45.024981006101 39.566564030426   52.7756470322 45.023614732777 39.565180763006 52.775611888184 45.023294050764 39.564864788496 
52.768489645733 44.982938223374 39.523360173793 52.767049758648 44.972687105371 39.513055431561 52.761161311041 44.942690900274  39.48182187427 
52.757982987191 44.923064240873 39.461820662647 52.753693466365 44.902624028596 39.440358639961 52.748494322308 44.874010284877 39.410834122059 
52.745783996629 44.862641947117  39.39868811564 52.738047024514 44.825171017971 39.359425638581 52.737358118182 44.822636292408 39.356662953851 
52.734689025903 44.811372743797 39.344639386269 52.729016239512 44.782262158214 39.314354946414 52.728056586017 44.776587915277 39.308546119941 
 52.71998813505 44.742007422836 39.271713539099 52.717127944168  44.72815491159 39.257198758823 52.709886143895 44.702397485596 39.228969244712 
52.704172176254 44.680195339747 39.204976946605 52.698876433573 44.663778874483 39.186546185778 52.689770364709 44.633098559704 39.152611595883 
52.687406624019 44.626348771298 39.144913420478 52.680019036817 44.604211675902 39.119901158081 52.676379701653 44.591470517209 39.105900322711 
52.675468063296  44.58810370386 39.102232921981 52.666265456785 44.558257953856 39.068999389057 52.662792984308 44.546788793385 39.056269592359 
52.657047622099 44.528162980423 39.035528085613 52.653391704092 44.513913782771 39.020137248817 52.646170483117  44.49217449407 38.995596138422 
52.642274751321 44.478163762931 38.980268734911 52.632771430143 44.452927425233 38.951057176507 52.628543801725 44.439333254424  38.93589670501 
52.616963225991 44.411994862459 38.903422732711 52.611921522698 44.398162301555 38.887519154047 52.598312260249 44.370603229174 38.853534864451 
52.591553892854 44.354956215174 38.834864497997 52.577090566279 44.328424394187 38.801268909141 52.567460499849 44.308687886732 38.777005940859 
52.553567172224 44.285918744227 38.747219472225 52.533024081475 44.252559560105 38.703457971038 52.530596499912 44.248932309403 38.698574602461 
52.526217587326  44.24213879842 38.689536678524 52.508135992333 44.212093075058 38.650393416735 52.498728901868 44.196008860878 38.629614781386 
 52.48520528218 44.174897069928 38.601582641611 52.467456127673 44.145815762152 38.563535887962 52.460928067345 44.136088654164 38.550428621637 
52.439103552438 44.100724945214 38.504007210152 52.433841815929 44.093301954903 38.493824132819 52.413497219057  44.06203763199 38.452106691552 
52.403896130217 44.048650051389 38.433669366261 52.389311536606 44.027067193257 38.404522058123 52.372135730945 44.003656775713 38.372031903228 
52.366213364016 43.995042447031 38.360333088137 52.355955319479 43.981537923502  38.34136507527 52.342402961428 43.963821664326 38.316420072986 
52.332385521266 43.952061676332 38.299202860495 52.316686718442  43.93275186717 38.271415913555 52.292943027021  43.90631585305 38.231922244612 
52.289364136815 43.902410540274 38.226041972305 52.286302329617 43.899413647915 38.221326084881 52.261480773659 43.874325746847 38.182370239882 
52.233323510782  43.84889038978 38.140945113999 52.232363543473 43.848039482437 38.139547678287 52.231073971681 43.847019866571 38.137783345415 
52.201397941074 43.823197091691  38.09685355976 52.181794052879  43.80897160481 38.071198186966 52.167835916597 43.799187020514 38.053246053383 
52.137690887828 43.779705472027 38.015984409383   52.1314257707 43.775596942007  38.00818568777  52.12848949361 43.773805270847 38.004653103443 
52.093088760217 43.753284950595 37.963051504463 52.071434293816 43.741470051175 37.938278345234 52.052974822528 43.732164801987 37.917861328948 
52.022002227691  43.71763728752 37.884597050716 52.013374301967 43.713545858372 37.875289990927 52.007456194763 43.711028957699 37.869170846411 
51.974275559656 43.698069536839 37.835916646218 51.937511466925 43.686009108763 37.801173415421 51.936085938467 43.685530368622 37.799816096408 
51.933934384533  43.68498731854 37.797931680747  51.89592349837 43.675984235264  37.76518064082 51.873951901513 43.672237621428 37.747582475872 
51.853434869052 43.668684747845 37.731099686752 51.818298114599 43.664761152424 37.704848301555 51.808879904664 43.663808253851 37.697902130221 
51.802018882288 43.663463071199 37.693161148351 51.763366235052 43.661522059695  37.66645540169 51.722991842697 43.661339933296 37.640247891434 
51.718533018268 43.661299690107 37.637335202802 51.713189942761 43.661490525292 37.634063536762 51.672147624182 43.663485819537 37.609416769087 
51.628080772859 43.667458822661  37.58462810157 51.622200947376 43.668090267767 37.581413236537 51.614091236809 43.669322829655 37.577309928763 
51.571000195258 43.675700626287 37.555350154323 51.532933107777 43.683102025168  37.53756698435  51.51938380415 43.685895622534 37.531382991639 
51.507029255996 43.688968508479 37.526225047073 51.468055752721 43.698387509417  37.50970262144 51.431485874681 43.708865364227 37.495698966384 
 51.41895172213 43.712620154328 37.491048873075 51.401741400406 43.718489728798 37.485316971099 51.370114081326 43.729005793326 37.474536146948 
51.350581605016 43.736045043111 37.468376313389 51.319765257215 43.747656076447 37.459120051788 51.270028574256 43.768082022265 37.445722863146 
51.268775936493 43.768617407785 37.445404611431 51.266504846408 43.769671304044 37.444903720138 51.217585993053 43.791582022115 37.433392045575 
  51.1913715259  43.80437588687 37.428185793479 51.166803225676 43.816834527416 37.423734688637 51.118539448162 43.843595766235 37.417081986705 
51.117645970395 43.844101824996 37.416968564986  51.11560704281 43.845325438898 37.416772645085 51.069061489186 43.872338923326 37.411458886814 
51.048713932703 43.884580816187 37.409531858881 51.021413533748 43.901259487297 37.407178376784 50.979483586414 43.927773404072 37.404384699232 
50.973148893947 43.931867879774 37.404043861363 50.958587547582 43.941691383066 37.403636915286 50.924592644374 43.963617937794 37.401765469273 
50.909363260996 43.974046135434 37.401480723275 50.876793662189 43.996515270361 37.401024842134 50.835287668916 44.027321415732 37.402430433095 
50.830659905657 44.030685650051 37.402522636654 50.823697977939 44.036031965782 37.402922217749 50.786518026551 44.063426088718  37.40399729029 
50.760055711394 44.083966813848 37.405716731856 50.746625471137 44.094152451523 37.406370554656 50.733444101373 44.104598437152 37.407423018957 
50.712153770724 44.121098750215 37.408782816167 50.686539338626 44.141665271426  37.41107272472 50.673438671484 44.152282850377 37.412334186425 
 50.64360358541 44.177038990735 37.415733804586 50.626656838144 44.191443804192 37.417978535702  50.59954580726 44.214450204764 37.421534758378 
50.575703076166 44.235198810046 37.425133930378 50.555326755647 44.252731779487 37.428027755637  50.52483678625 44.279559145864 37.432899399513 
50.511648653254 44.290849212655 37.434719528078 50.473133210055 44.323925404955  37.44013024808 50.467696061222 44.328467623815 37.440777835296 
50.437567580663  44.35333536814 37.444090294958 50.423232830311 44.364987809579 37.445502311665 50.420472541618 44.367165714922 37.445713952384 
50.378234473862 44.399662349639 37.448193546602 50.365758008139 44.408788734508  37.44849371089 50.332915300904 44.432157418198 37.448684437631 
50.308893765916 44.448140721109 37.447809769634 
POLYGONS 1 473
472 0 1 2 3 4 5 6 7 8 9 10 11 12 13 14 15 16 17 18 19 20 21 22 23 24 25 26 27 28 29 30 31 32 33 34 35 36 37 38 39 40 41 42 43 44 45 46 47 48 49 50 51 52 53 54 55 56 57 58 59 60 61 62 63 64 65 66 67 68 69 70 71 72 73 74 75 76 77 78 79 80 81 82 83 84 85 86 87 88 89 90 91 92 93 94 95 96 97 98 99 100 101 102 103 104 105 106 107 108 109 110 111 112 113 114 115 116 117 118 119 120 121 122 123 124 125 126 127 128 129 130 131 132 133 134 135 136 137 138 139 140 141 142 143 144 145 146 147 148 149 150 151 152 153 154 155 156 157 158 159 160 161 162 163 164 165 166 167 168 169 170 171 172 173 174 175 176 177 178 179 180 181 182 183 184 185 186 187 188 189 190 191 192 193 194 195 196 197 198 199 200 201 202 203 204 205 206 207 208 209 210 211 212 213 214 215 216 217 218 219 220 221 222 223 224 225 226 227 228 229 230 231 232 233 234 235 236 237 238 239 240 241 242 243 244 245 246 247 248 249 250 251 252 253 254 255 256 257 258 259 260 261 262 263 264 265 266 267 268 269 270 271 272 273 274 275 276 277 278 279 280 281 282 283 284 285 286 287 288 289 290 291 292 293 294 295 296 297 298 299 300 301 302 303 304 305 306 307 308 309 310 311 312 313 314 315 316 317 318 319 320 321 322 323 324 325 326 327 328 329 330 331 332 333 334 335 336 337 338 339 340 341 342 343 344 345 346 347 348 349 350 351 352 353 354 355 356 357 358 359 360 361 362 363 364 365 366 367 368 369 370 371 372 373 374 375 376 377 378 379 380 381 382 383 384 385 386 387 388 389 390 391 392 393 394 395 396 397 398 399 400 401 402 403 404 405 406 407 408 409 410 411 412 413 414 415 416 417 418 419 420 421 422 423 424 425 426 427 428 429 430 431 432 433 434 435 436 437 438 439 440 441 442 443 444 445 446 447 448 449 450 451 452 453 454 455 456 457 458 459 460 461 462 463 464 465 466 467 468 469 470 471 

CELL_DATA 1
FIELD FieldData 6
ClosedSection 1 1 int
1 
SectionArea 1 1 double
        11.8575 
SectionLength 1 1 double
        14.0541 
SectionMinSize 1 1 double
        1.06608 
SectionMaxSize 1 1 double
        2.86183 
SectionShapeFactor 1 1 double
       0.372518 
