# vtk DataFile Version 4.2
vtk output
ASCII
DATASET POLYDATA
POINTS 503 double
 53.61259605025 45.890404916362 33.798661810517 53.615131870316 45.881250830714 33.796675149903 53.627841398579 45.834701602223 33.785960804213 
  53.6293215922  45.82926050912 33.784690545787 53.642671559265 45.779283987565 33.772211955252 53.643721339534 45.775350619812 33.771226798877 
53.656904712347 45.724891194291  33.75765139486 53.657745628539 45.721677741089 33.756791310642 53.670368916787 45.672230108221 33.742511392611 
53.670851184486 45.670342179174 33.741967190147 53.673235721455  45.66081933498 33.739063486839 53.682815668937 45.622514988092 33.727345659959 
53.685236407688 45.612500197632 33.724004677705  53.69431366918 45.575311594591 33.711889569717 53.702548336743 45.540427655917 33.699600332555 
53.706369447091 45.524434336554 33.694117133538 53.712626568388 45.497509393771 33.684305613756  53.71814599513 45.473557788451  33.67542329506 
53.721771306411 45.457323090878 33.669020215315 53.729183676265 45.424428083025 33.656266497057 53.739215862846 45.377522935809 33.636306888421 
53.739892202459  45.37433417225 33.634931207631 53.740282977949 45.372400456494 33.634033009315 53.750501922278 45.322597115991 33.611409690524 
53.755236797483 45.297983689935 33.599187126758 53.761752539178 45.265294000679 33.583704539269 53.768808141468  45.22794862494 33.564735091851 
53.772531195051 45.207456532353 33.553835810936 53.778619521682 45.173220025494 33.535190742675 53.782165471124 45.153510938872 33.524592840874 
53.784028868085 45.142942906859 33.518784916285 53.790976175739  45.10228259453 33.495705577891 53.796964208449 45.066391151821 33.474856023366 
53.798976404685 45.053948375268 33.467417481796 53.803046729188 45.028096683639 33.451598509906 53.806513136622  45.00630188845 33.438377060277 
 53.80807309934 44.996318676377 33.432228957487 53.813815683274 44.958802378208 33.408729565663 53.818293505201  44.92953136168 33.390386038244 
53.821088424482 44.911107492285 33.378762484509  53.82833847711 44.863971487847 33.349353077059 53.828440165021 44.863313990321 33.348944687529 
 53.82871104205 44.861606887891 33.347907010595 53.836045972559 44.815479425999 33.319919512475 53.839050245805 44.796885166656 33.308794520059 
 53.84392263297 44.767306187626 33.291405526309 53.850341395837 44.728744576971 33.268956128988 53.852141115427 44.718319199327 33.263099371376 
  53.8564952458 44.693248044896 33.249101220735 53.860863564925 44.668101769209 33.235064900013 53.862565390181  44.65832508977 33.229619100802 
53.870290270569 44.616034526194 33.207262526439 53.875319031411 44.588365052767 33.192551383739 53.880422559057 44.561840622994 33.179383264506 
53.888572780572 44.518759181922 33.157536247533 53.890928165387 44.507043247156   33.1520538704 53.899737080245 44.461889373076 33.130036484821 
53.901704419063 44.451845591632    33.125165254 53.902158661135 44.449439099798 33.123941522588 53.912816580945 44.396395940266 33.099100795621 
53.915829403115 44.380674988472 33.091256379521 53.923984040265 44.340916239781 33.073184953711 53.929633543909 44.311730661939 33.058807821134 
53.935175316667 44.285102164633 33.046969287971 53.943555930012 44.242097953732 33.025970598682 53.946357895023  44.22876924911 33.020137611826 
53.956766320085 44.175475475782 32.994189210767 53.957541138357 44.171566355365  32.99232338986   53.9577110136 44.170645838465 32.991842485248 
53.969158664588 44.113216758105 32.964645491991 53.972167294519 44.096979802062 32.956203156962 53.980972393979 44.052829664184 32.935309315146 
53.986989955538 44.020056679527 32.918087116551 53.992959629646 43.990271460398 32.904088659981 54.000643809547 43.946787805802 32.880247186598 
 54.00531749134  43.92188854005 32.867498974357 54.011767653229 43.883886528772  32.84578669718 54.017267715786 43.852309390203 32.828208963876 
54.021586124529 43.824214482239 32.810670202086  54.02773191733 43.783337932145 32.784698956653 54.029813553684 43.766643513398  32.77267725267 
54.035876307885 43.711857628184 32.730687562511 54.036205010244  43.70740444713 32.726732534358 54.036199773761 43.702758637351 32.721456574818 
 54.03852720418  43.65699246053 32.677339869039 54.037645015108 43.631954053154 32.646084917124 54.037741317031 43.618367570189 32.631024217527 
54.036124647527 43.598552378862 32.603255754857 54.035146052329 43.585388399627 32.585123256619 54.033965441079 43.579327008109 32.574363095456 
54.031012090471 43.557874433019 32.540326627348 54.025853918062 43.539665310202 32.502679661132 54.025143206838 43.536206269282 32.496417069211 
 54.02315169743  43.53125514428 32.484235502038  54.01791863028 43.517562231374 32.451453151737 54.014575792337 43.512620779772 32.434819533302 
54.008917498898 43.502201529198 32.404338308074 54.000966800184 43.494283210842 32.369116854753 53.997777393402 43.490341473211 32.354121561739 
53.985094273997 43.482835733682 32.303737459177  53.98438601054 43.482356608689 32.300855965124 53.984144024557 43.482290134307 32.299981520355 
53.969806787232 43.476988772389 32.246629571402 53.964307116218 43.476717633198 32.228159031526 53.953783060009 43.475422557848 32.191935564261 
53.941348319447 43.477168852992  32.15284430013 53.936748479063 43.477457167476 32.137978863967 53.926866961793 43.480214248514 32.108464194358 
53.919361110751 43.481499667759 32.085129784198 53.915297671407  43.48288942341 32.073282645616 53.901852695865 43.486752957857 32.033251438805 
53.885932264017 43.493793789796 31.988641034082 53.883927333205 43.494606011528 31.982938763135 53.881087494149 43.496180790906   31.9753422115 
53.865988156435 43.502757330296 31.932918074887 53.854036473769 43.509430627813 31.900999146075 53.847432877405 43.513040251259 31.883275394338 
53.838692724428 43.518956320015 31.861105989405 53.828321159567 43.524880708578 31.833557976412 53.819221869269 43.531237250603 31.810701035773 
53.808442254806  43.53863389212 31.783471833292 53.795631421958 43.548831341436 31.752704452356 53.787968706588 43.554224633418 31.733501735829 
53.780591983146  43.56010992503 31.715800460187 53.767249694361 43.570559690762 31.683563453235 53.753337227886 43.582744847872 31.651407650722 
53.746275979841 43.588269031129 31.634339543972 53.738652339489 43.594841556471 31.616600672363 53.725370948828 43.606138792862 31.585524057567 
53.713097492721 43.617496532424 31.557844808834 53.704431534534 43.624699382551 31.537376973339 53.694081331119 43.633965122771 31.513681638761 
 53.68373144266 43.643194104515 31.489945736882 53.674637305963 43.651825436117 31.469680687009 53.663002335137 43.661928956922 31.442690478555 
 53.64912072139 43.674750400612 31.411356795397 53.642095483298 43.681238981771 31.395499235015 53.635709239084 43.687478069421  31.38146965895 
53.620935887701 43.701013131172 31.347998610532 53.603688113377 43.717700944266 31.309923992903 53.599029164641  43.72218878027 31.299616845418 
53.594891118894 43.726413040398 31.290731726219 53.576408337536 43.744497673597 31.250159362754 53.554577186782  43.76726674034 31.203830802989 
53.552473179527 43.769439127711 31.199340907491 53.550822486546 43.771256727778 31.195946572985  53.52786931394 43.795696102987 31.147802986643 
53.515567732735  43.80971461665 31.123042621854 53.498663945261 43.829107910378 31.089166457507 53.488592329447 43.841043775523 31.069413563982 
  53.4687378858 43.864911035562 31.030856490207 53.462869239653 43.872148714296 31.019666693964  53.44004527632   43.9010267058 30.976973983598 
53.438307573309 43.903272669365   30.9737771545 53.426850277182 43.918327077558 30.952977735342 53.413959644838 43.935237070634 30.929544836318 
 53.41201789504 43.937829951387 30.926066787749  53.38974834386 43.967983043693 30.886648427911  53.38427203578 43.975496324376 30.877066355487 
53.365508960314 44.001605500362 30.844651377453 53.356401601889 44.014394226787 30.829048481054 53.341202999947 44.036053673825 30.803369087129 
 53.32828114916 44.054568743242 30.781649894837 53.316794680251 44.071274924639 30.762623795479  53.29989928242 44.095890733351 30.734686786229 
53.292171602742 44.107319596434 30.722101271443 53.271321486068 44.138142421092   30.6881289249 53.267254705623 44.144235042343 30.681593999255 
 53.24264663295 44.181018758259 30.641957566993 53.241968702879  44.18204470035 30.640879863391 53.236660598736 44.190056102556 30.632417145707 
53.216329038707 44.220796462978 30.600064081344 53.213691879984 44.224783428353   30.5958673085 53.190383145709 44.260328504422 30.559120134467 
53.184286261417 44.269620998263 30.549502419036 53.164526165103 44.299974291145  30.51859858651 53.154613780528 44.315177395007 30.503069821096 
53.139071616473 44.339157962206 30.478883065121  53.12491039611 44.360914615367 30.456739835901 53.114912900059 44.376385577966 30.441233168347 
53.096196317676 44.405236748999  30.41207544922 53.091788129203 44.412066499774  30.40524733187 53.069670541413 44.446421603246 30.371087180422 
53.068315423682 44.448527649984 30.368995532611 53.044419669066 44.485927141857 30.332408662808 53.044043461382 44.486518381903 30.331835404506 
53.019217773345 44.526003343958 30.294537842114 53.018700328011 44.526832704842 30.293767654293 52.994106608719 44.566902200384 30.257897852223 
52.992283712908 44.569904091498 30.255275305162 52.969164091779 44.608662870702 30.222790351741 52.964840824165 44.616006440865 30.216824300741 
  52.9444566563  44.65128746732 30.189437140994 52.936168895817 44.665794311072 30.178485875318 52.919973190422 44.694701710571 30.157717442783 
52.906176110397 44.719551757181 30.140278311908  52.89550544144 44.739156399307 30.127227348992 52.874956609613 44.777200244332 30.102423635259 
52.870867492047 44.784903572284  30.09763812157 52.856944269144 44.811334360934 30.081571648366 52.845948897094 44.832332455239 30.069025566669 
52.842430325265 44.839134460701 30.065104159774 52.820464915472 44.882401317867 30.041533957111 52.807410261464 44.908588218335  30.02806002495 
52.794440404719 44.935002045215 30.015123012278  52.76794732643 44.990736569201  29.99071173423 52.765828895248 44.995257956282 29.988833070875 
52.764096757895 44.999137389855 29.987503573729 52.736813393325 45.061485896524 29.967968706891 52.732055966145 45.072732984522 29.964987220586 
52.710568455375 45.124500528762 29.952617425049 52.704500915193 45.139428346962 29.949475335955 52.685781222101 45.186563387638 29.941003142678 
52.679569644252 45.202448347666 29.938468747677 52.661854377957 45.248758862742 29.932380557494 52.655813811084 45.264693179666 29.930466824238 
52.638463380611  45.31148980215   29.9261338013 52.632974982434 45.326468476884 29.924961996095 52.615559768107 45.375088088498 29.922478483113 
52.610888050863 45.388292898309 29.921996045084 52.592970341562 45.439972647807 29.921316772037 52.589417043364 45.450328912095 29.921303796631 
52.570522515838 45.506590932888 29.922585154099  52.56845659096 45.512788873031  29.92277761884  52.54806805536 45.575255622434 29.926147981103 
52.547964830636 45.575579913042 29.926174132889 52.528368044146 45.637320492207  29.93133742267 52.525373150083 45.646972136542 29.932371104969 
 52.50950908758 45.698440773944 29.938235401449 52.502526203465 45.721588867598 29.941374886662 52.491804946735 45.757504686703 29.946619726377 
52.479655662721 45.799122972104 29.953602965468 52.475393861742 45.813932717249 29.956290999711 52.466335418777 45.845993762623 29.962664296064 
52.460249483392 45.867556035919 29.966971097598 52.457414638541 45.877752611261 29.969150186612 52.446629404487 45.916910694009 29.977853699127 
52.437218853642 45.951496341066 29.985921733463 52.433747133877 45.964298442809 29.988946667082 52.427620696717 45.987028116788 29.994441103552 
52.421106441926 46.011261492742 30.000356767827 52.417302345046  46.02552529121 30.003938484929 52.408396888309 46.058898375394 30.012302162627 
52.394939987702 46.109682622804 30.025341863881 52.394799685143 46.110210886217 30.025476439608 52.394603005753 46.110957954361 30.025672489423 
52.380963390208 46.162878790614 30.039395265161 52.371217083554  46.20030707728 30.049572035206 52.366631358705 46.217888608025 30.054327681457 
52.359896585313 46.243738611256 30.061344930006 52.351949710489 46.274177409614  30.06955312922 52.346681021153 46.294183354604  30.07479739744 
52.336862516627  46.33136031464  30.08445124072 52.321940452061 46.386829959703 30.097955454946 52.321325763447 46.389098789144  30.09849346114 
 52.32021552731 46.393077783376 30.099330596681 52.305255678968 46.446901945398 30.110847475204 52.296479756237 46.477785046175 30.116820510427 
52.288783871498 46.504530831783 30.121677469456 52.275328102336 46.550592656988 30.129375523565 52.272153580048 46.561553285452 30.131297611696 
52.270161492421 46.568366984418 30.132430924071 52.255453055641 46.618022625675 30.140059719411 52.243247080962 46.659127473529 30.146274559552 
52.238826350557 46.673799489656 30.148281803707 52.231822459177  46.69709034948 30.151513507992 52.222281003744 46.729181530345 30.156325681346 
52.216160700733 46.749852321191 30.159509894737 52.205802286622 46.784326003922 30.164320709337   52.1899381478 46.837563956475 30.172187469398 
52.189430433573 46.839292319186 30.172467014574 52.189102237934 46.840421466506 30.172661190217 52.173259798779 46.894121402417 30.181122543481 
52.162329708469 46.931805140579 30.187678808855  52.15732938537 46.948820470562 30.190424279744 52.150242210321 46.973511665772 30.194965986671 
52.141796936219  47.00339442271 30.200898742369 52.135856196878 47.025053448051 30.205794594603 52.126783044845 47.057767034735  30.21285793343 
    52.11558289 47.099709504983  30.22334278887 52.112392130602 47.111884633523  30.22658596281 52.109753359227 47.122360044017  30.22972823694 
52.098709847779 47.165741345054 30.242359070005 52.087549184083 47.211393248493 30.257173117674  52.08564029207 47.219403678252 30.259935796629 
 52.08365694469 47.228088723362 30.263216181332 52.073290088554 47.272894330235 30.279693982036 52.064825283695 47.310892094161 30.294747737962 
52.061468467657 47.326593704439 30.301434160698 52.057059549194 47.348004653573 30.311108320091 52.050308092091 47.380265947315  30.32532750827 
52.045958123691 47.401742411095 30.335270517699 52.039672618464 47.434385532315 30.351460790626 52.030317616651 47.484881649787 30.377721597042 
52.029838819175 47.487599541843 30.379216708712  52.02881813885 47.493682029426 30.382730595307 52.021378025727 47.537715560874 30.408000556506 
52.018561616321 47.555792876006   30.4191608651 52.014687386809 47.581888979575 30.435904128992 52.010395475623  47.61351260553 30.457524615008 
52.009023089321 47.623566652538 30.464372401159 52.007173165056 47.639042506479 30.475780062506 52.003942081837 47.666385333949 30.496058616806 
52.002297316833 47.682720047763 30.509116009776 51.999538242022 47.709981925312 30.530861826576 51.996293519072 47.749768418282 30.565180513882 
51.996013150478 47.753078070672 30.568000794745 51.995864685672 47.755397083791 30.570135390955 51.993405990388 47.795134234922 30.606994222409 
51.991934528113 47.831488198329 30.643284081555 51.991753061515 47.836319447037 30.648153322492 51.991669581151 47.841350148491 30.653571943938 
51.990773269759 47.876814144608 30.690753972313 51.990666505048 47.910826369299 30.728900334904 51.990660716335 47.916293675662 30.735069746689 
51.990765360473  47.92111794019 30.740876013272 51.991119486042 47.955017283128  30.78041677464 51.992386904889 47.992047161281 30.826517350109 
51.992389248272 47.992168410402 30.826662333331 51.992395133413 47.992303941974 30.826835180366 51.993990165073 48.028404446489 30.872965782276 
51.995936281317 48.057372427154 30.912182487044 51.996197349029 48.062979724186 30.919391696858 51.996605619239 48.068938538262 30.927484956549 
51.998526948357  48.09637556199 30.964886883234 52.000922848158 48.124628851163 31.004780106962 52.001222795018  48.12972679305 31.011541174922 
52.001460968521  48.13332267841 31.016398024081 52.003932040023 48.164848170366 31.060243373381 52.005659162063 48.188425409761 31.092634946381 
52.006938872155  48.20252083878 31.112816252301 52.009741396707 48.237121396136 31.161236998609  52.01071400062 48.244349482525 31.172630779134 
52.013819353411 48.278563791513 31.221614468493 52.015219610451  48.28858951108 31.237587333849   52.0176310175 48.317417533719 31.278182322845 
52.019581228657 48.331782480696  31.30088314836 52.021208079047 48.353299816998  31.33061191986 52.023848903534 48.372692818842 31.361284952015 
52.024951695338 48.387137852314 31.381277676872 52.028516954436  48.41127247772 31.420370935575 52.029081388789 48.418831517297 31.430791275282 
52.033661117643 48.447951851277 31.478878401134 52.033706137876 48.448567350537 31.479723781683 52.034093947934 48.450868710946 31.483609538801 
52.038023806087  48.47808738044 31.527397828157 52.039486276788 48.483384343003 31.538223610699 52.043325019225 48.505280558012 31.575686404422 
52.047225754428 48.515513846256 31.600152490016 52.050755603076 48.528995023784 31.627069994316 52.057445266452 48.542851561283 31.664848219713 
52.059795247795 48.549400741121 31.680022567046 52.068449282093 48.562550971487   31.7234889936 52.071848359029 48.567094413345  31.73985783774 
52.078526634036 48.578398982356 31.774709837784 52.087903075155 48.591327368858 31.820311031672 52.089112471757 48.593777930618 31.827079106563 
52.090909555991 48.596138621476 31.835686397182   52.0991577188  48.61237149585 31.881301654802 52.107298448677 48.621513520516 31.918535851954 
52.111131921721 48.627939870882 31.938470659576 52.121532305134 48.635131606222 31.980960197775 52.125387657033 48.638878954132 31.997934859169 
52.127042013513 48.639502316423 32.004104256702  52.14088301449 48.648107747791  32.05955722578 52.145899601988 48.649181927787 32.077341271685 
52.156833278381  48.65378105946 32.118657495127  52.16473135023 48.654557091796 32.145620673109 52.172953013842 48.656613914372 32.175102316552 
52.183544183771 48.656708833154  32.21018896262 52.189427254435 48.657426161063 32.230430795463 52.202628843711 48.656079150544 32.272506669218 
52.206391937557 48.656024965862 32.284873617619 52.222040655163 48.652858485602 32.332972077728 52.223852956303 48.652638156907 32.338708128254 
52.241668658817 48.647689013298  32.39194561341 52.241703305547 48.647681927332  32.39205201963  52.24211249251 48.647545678652 32.393249209694 
52.259722858965 48.642047632429 32.445187224813 52.261315706195 48.641325090691 32.449630027272 52.278024152583 48.635079602362 32.497743250881 
52.281095567901 48.633533975014 32.506137621591 52.296536267287 48.626725298406 32.549426405545  52.30108794687  48.62418143701 32.561579693161 
52.315153029344 48.617083650053 32.599998011181 52.321214364721 48.613362366353 32.615804460402 52.333257227348 48.606528482114 32.647842756478 
52.341787629468 48.600685416452 32.669402055575 52.350874619124 48.594945536111 32.692916380231 52.367172441297 48.583326296476 32.733590811385 
52.368866421664 48.582224629776 32.737938486351 52.370397807954 48.581136243983 32.741764198581 52.389220647928 48.567364674135 32.788341689798 
52.404658480924 48.554529017561 32.824798973614 52.417375216379 48.542742106185 32.853456444227 52.438726248937 48.522622375068 32.901198153647 
52.446538594799 48.514669988686 32.917998372069 52.474234424105 48.486251348142 32.977301225336 52.474773191461 48.485661257202 32.978412666308 
52.476974049182 48.483261761629 32.982965360198 52.502348705956 48.456003618335 33.035915717018  52.50882932279  48.44899206448 33.049382608658 
52.529373260288 48.425676280084  33.09084108139 52.541383614497 48.412094516189  33.11513398161 52.556194122014 48.394576340071 33.144219194938 
52.572510849147 48.375447670172 33.176456020874 52.583269723171 48.362241684092 33.197041035952 52.602573350674 48.338772145228  33.23422912915 
 52.61138420422 48.327554446192 33.250631036511 52.632398476711 48.300974797582 33.289948454264 52.642950843419 48.286908135987 33.308877230376 
  52.6634385503 48.260113266394 33.346211960349 52.678679789144 48.238956585876 33.372601259489 52.699479040082 48.210584400696 33.409179530328 
52.711619759958 48.193145609263 33.429537156037 52.730948583644 48.165745685129 33.462359599189 52.744661773106 48.145076551813 33.484254108181 
52.758130105763  48.12506903195 33.506088825073 52.779838422442  48.09104589517 33.539273044835 52.783209274343 48.085848998166 33.544523428126 
52.789103206928 48.076332372609 33.553217161549 52.807584810904 48.046349253431 33.580317553153 52.820838146669 48.023968280756 33.598755656349 
52.831582316808 48.006038721048 33.613945422001 52.843240381117  47.98595521135 33.629715394418 52.855412235949 47.964821129091 33.645993091024 
 52.86857868062 47.941281566843 33.662832795309  52.87902253675 47.922783464086 33.676387178185  52.88740025347 47.907526515143 33.686786484338 
52.902355072867 47.879990284346 33.705008719496 52.924340439911 47.838405164843 33.730548419799 52.925277050487 47.836647500554 33.731652213516 
 52.92582956898 47.835582881686  33.73227194442 52.948578705281 47.791017146595 33.756960321707 52.958117212134 47.772072304032 33.767018957164 
52.973587932228 47.740605846478 33.782496359871 52.986046876117 47.715073926666 33.794744237236 53.007960057231 47.668302264368 33.814174801449 
53.011384018942 47.661007192707 33.817225632366 53.017371834494  47.64783464545  33.82209123559 53.036451733264 47.605906755144 33.837647127001 
53.047454347892 47.580794030631 33.845559713965 53.060063257869 47.552102284012 33.854726223133 53.080217408704 47.504618411625 33.867541117918 
53.082532289351 47.499175847959 33.869025896005 53.083968117716  47.49569440853 33.869827276306 53.104202530791 47.446732455631 33.881234188717 
53.120101366868 47.407185296695 33.888978847003 53.125018602145 47.394951640698 33.891371415895 53.131330784575 47.378872532137 33.894018315485 
53.145412341522 47.343196806205 33.900143224926 53.155991693457 47.315847519368 33.904126312162 53.165322408719 47.291669846679 33.907575556562 
53.176774444416 47.261456670133 33.911199153999 53.184888465279 47.240190067517 33.913925136615 53.190825824092 47.224353859078 33.915609057594 
53.203980972935 47.189158382656 33.919217942907 53.221415862421 47.141710337316 33.923092550853 53.222379152602 47.139105731671 33.923325792434 
53.223015049048 47.137356308922 33.923445753446 53.240040971144 47.090240669204 33.926345929633 53.251244415691 47.058621316519 33.927556838089 
53.256534228436 47.043562858958 33.927982472456 53.269784208269  47.00540955257 33.928556539591 53.273036183636 46.996072687004 33.928728216663 
53.273863425184 46.993686900239 33.928759818175 53.288198239972 46.951669951726 33.928543426749 53.291813448764 46.941079182873 33.928495433403 
53.292092212959 46.940244824278 33.928471677694 53.309746067689 46.887548155013 33.927128457028 53.315161840736 46.871126865533 33.926427486623 
53.328188692812 46.831816617715 33.924955074805 53.338730131365 46.799496553207 33.923186445021 53.346323289532  46.77638035814 33.922098603977 
53.361946795291  46.72808714964 33.919034144332 53.364445495552 46.720425163363 33.918613819758 53.373776155379 46.691341179957 33.916509350835 
53.382562103283 46.663959910494  33.91453320343 53.384802911857 46.656861446062 33.913899005326 53.400710121798 46.606781975884 33.909749631089 
53.407117451672 46.586232710628 33.907650931245 53.419251604488 46.547475001405 33.903855649855 53.428822478524  46.51644140858 33.900337737154 
53.438031062568 46.486642268641 33.897020594514 53.448593989154 46.451987133666 33.892679829769 53.460865139268 46.411557450016 33.887444471968 
53.465526045912 46.396141077701 33.885387903718 53.471950700808 46.374767715055 33.882413614021 53.482571938044 46.339606293212 33.877692356415 
 53.49192480077  46.30836284229 33.873216881246  53.50013344202 46.280902076818 33.869244094053  53.50897462062 46.251042890075 33.864645562232 
53.517928297884 46.220975553566 33.860182969093  53.52436777976 46.199021069864 33.856599868053 53.535698332946 46.160392733162 33.850296995993 
53.550327880898 46.109994522008 33.841567129851 53.553689006322 46.098400131901 33.839543966706  53.56436819021 46.061242165325 33.832754167763 
53.571144459909 46.037706802836 33.828493946331  53.57302110118 46.031116741469 33.827232490926 53.587166207036 45.981450359272 33.817731038052 
53.594273382672 45.956154917674 33.812571430607 53.601461802642 45.930588839299 33.807373808872 
POLYGONS 1 504
503 0 1 2 3 4 5 6 7 8 9 10 11 12 13 14 15 16 17 18 19 20 21 22 23 24 25 26 27 28 29 30 31 32 33 34 35 36 37 38 39 40 41 42 43 44 45 46 47 48 49 50 51 52 53 54 55 56 57 58 59 60 61 62 63 64 65 66 67 68 69 70 71 72 73 74 75 76 77 78 79 80 81 82 83 84 85 86 87 88 89 90 91 92 93 94 95 96 97 98 99 100 101 102 103 104 105 106 107 108 109 110 111 112 113 114 115 116 117 118 119 120 121 122 123 124 125 126 127 128 129 130 131 132 133 134 135 136 137 138 139 140 141 142 143 144 145 146 147 148 149 150 151 152 153 154 155 156 157 158 159 160 161 162 163 164 165 166 167 168 169 170 171 172 173 174 175 176 177 178 179 180 181 182 183 184 185 186 187 188 189 190 191 192 193 194 195 196 197 198 199 200 201 202 203 204 205 206 207 208 209 210 211 212 213 214 215 216 217 218 219 220 221 222 223 224 225 226 227 228 229 230 231 232 233 234 235 236 237 238 239 240 241 242 243 244 245 246 247 248 249 250 251 252 253 254 255 256 257 258 259 260 261 262 263 264 265 266 267 268 269 270 271 272 273 274 275 276 277 278 279 280 281 282 283 284 285 286 287 288 289 290 291 292 293 294 295 296 297 298 299 300 301 302 303 304 305 306 307 308 309 310 311 312 313 314 315 316 317 318 319 320 321 322 323 324 325 326 327 328 329 330 331 332 333 334 335 336 337 338 339 340 341 342 343 344 345 346 347 348 349 350 351 352 353 354 355 356 357 358 359 360 361 362 363 364 365 366 367 368 369 370 371 372 373 374 375 376 377 378 379 380 381 382 383 384 385 386 387 388 389 390 391 392 393 394 395 396 397 398 399 400 401 402 403 404 405 406 407 408 409 410 411 412 413 414 415 416 417 418 419 420 421 422 423 424 425 426 427 428 429 430 431 432 433 434 435 436 437 438 439 440 441 442 443 444 445 446 447 448 449 450 451 452 453 454 455 456 457 458 459 460 461 462 463 464 465 466 467 468 469 470 471 472 473 474 475 476 477 478 479 480 481 482 483 484 485 486 487 488 489 490 491 492 493 494 495 496 497 498 499 500 501 502 

CELL_DATA 1
FIELD FieldData 6
ClosedSection 1 1 int
1 
SectionArea 1 1 double
        17.2109 
SectionLength 1 1 double
        15.1521 
SectionMinSize 1 1 double
        1.91929 
SectionMaxSize 1 1 double
        2.84542 
SectionShapeFactor 1 1 double
       0.674518 
