# vtk DataFile Version 4.2
vtk output
ASCII
DATASET POLYDATA
POINTS 450 double
41.207374165379 28.810380556656 23.586414550291 41.247089049662 28.813257791358 23.618508798706 41.253549089527 28.813763988352 23.623704614999 
41.296521268037 28.817361554805  23.65811849554 41.303099492139 28.817929059572 23.663375771902 41.348352258892  28.82226466214 23.699262890216 
41.357116604768 28.823067848184 23.706236909595 41.404909314965 28.827868081313 23.743995462573 41.416513260273 28.828875349594 23.753265266691 
 41.46812401173 28.833558329806  23.79436347196 41.480820423538 28.834389691153 23.804680749241 41.507140886415 28.835250784033 23.826625764472 
41.535007722717 28.837202153177 23.849188985996 41.550817468363 28.837983943747 23.862199787426 41.583898523374 28.839505701921 23.889497848043 
41.616619607607 28.841116392161 23.916430772474 41.632290312074 28.841287676802 23.929716783075 41.675059749253  28.84251208482 23.965489183356 
41.681792241201 28.842437138117 23.971293033299 41.729859696372 28.843926433314 24.011423622552   41.7331341611 28.844059791038 24.014136816595 
41.733594847745 28.844101235984 24.014503896298 41.784417008893  28.84641619397 24.056456475365 41.792603576017 28.847235494336 24.062926161665 
41.833850976387  28.84917947449  24.09693292972 41.851549096241 28.850798314666 24.111017761208 41.880152894488 28.851745566785 24.134859139719 
41.913410564448  28.85460056489 24.161447597944 41.924414494833 28.855219433083 24.170455167893 41.942330089521 28.856838166525 24.184725983168 
41.968508692379  28.86026305963 24.204894829345 41.985347588994  28.86273005245 24.217697657845 42.013318730001  28.86597008308 24.239518235131 
42.055489903526 28.871856602391 24.271769866725 42.058324362988 28.872131027818   24.2740158519 42.064064196091 28.873056232955 24.278325514151 
42.102971719682 28.881189571783 24.306336827262 42.125026261386 28.886860711314 24.321530176504 42.145991671869 28.891445625604 24.336493591809 
42.179893420188 28.900319543491  24.35974753458 42.185534383257 28.902062003832 24.363445148464 42.190361887792 28.903490499619 24.366650012442 
42.223736732989 28.912673289102 24.389254144133 42.251143876108 28.919154833186 24.408500221095 42.264758268103 28.923777680278 24.417154912403 
  42.3111923273 28.934924963995 24.449655052926 42.316896419737 28.936362011785 24.453603774205 42.318193988217 28.936419686891 24.454675811148 
42.325063481592 28.937367237801 24.459936773537 42.374285322496 28.947953958513 24.495181968243 42.391704212895 28.951928119454 24.507507766747 
 42.42491549791 28.954066525391 24.534519121232 42.451810602876 28.955911179079 24.556320512313 42.473148407757 28.952714520307 24.576625172392 
 42.49913004614 28.948554349138 24.601521686244  42.51963147708 28.939644149445  24.62479935451  42.53676516869 28.931786083039 24.644518872932 
42.564897689881 28.910018733373 24.682619311196 42.567206019202 28.908110265203 24.685824544288 42.569075674439 28.904781301127 24.689571673114 
42.594792876389 28.881389043753 24.726656157481 42.608210887682 28.857806580608 24.753349084397 42.614433951606 28.845815343627 24.766409226562 
42.617390287795 28.835818023455 24.775389664112 42.632693551461 28.808662198043 24.806000809011 42.643987312247   28.7813853897  24.83326240268 
42.647933202424 28.768680619433 24.844836409836 42.651388027525 28.755039201146  24.85659520794 42.662603962494 28.728030577794  24.88361716036 
42.671086993085 28.707880184871 24.903875919399 42.677234154843 28.687693755298 24.922161051948 42.684429566079  28.66431383299 24.943403665159 
42.691479347915 28.647142257571  24.96051438508 42.696759594636 28.633588398688 24.973777181355 42.705362270688 28.605632607636 24.999176493882 
42.713990932309 28.573704322873  25.02716220787 42.717827386678   28.5625516132 25.037640827998 42.720770584713 28.552008156576  25.04696255714 
42.728363048578 28.517524167475 25.075712116338 42.733850821948 28.481968806378 25.103353972697 42.736377172387 28.470214891108 25.113100680604 
42.738242001347 28.457288209207 25.123038870812  42.74181276157 28.420416968339 25.149891292164 42.742258669027 28.388260238599 25.171029190915 
42.743470728109 28.368849196954 25.184594901096 42.742169317432 28.340023076489 25.202089192617 42.740675453088  28.31584806892  25.21641673361 
42.738746443334 28.300743904418 25.224517180204 42.734769754819  28.26194045772 25.246164649096 42.728466819269 28.221311385596 25.267001870506 
42.726846011634 28.209323523806 25.273354264861 42.722339833496 28.184106165404 25.285779461243 42.717591189321 28.157775174045 25.298716212129 
 42.71493520296 28.144737560742 25.304861252193 42.707816493709 28.108108720525 25.322418993439 42.699001704191  28.06618057844 25.341947411815 
 42.69756399933   28.0591602133 25.345249890232 42.695696231545 28.050319829235  25.34935951219 42.687065533367 28.009426262767 25.368377503062 
42.679405748716 27.972464288935 25.385687722655 42.676686441333 27.959272923341 25.391877875711 42.673106915626 27.940740187161 25.400780422328 
42.667087921719 27.909432287678 25.415843698404 42.663816901835 27.891149332567 25.424848750442 42.658290895063 27.860599653093 25.439844051388 
42.650716012684 27.815092346989  25.46274273994 42.650639747091 27.814641198938 25.462968751512 42.650559279182 27.814121071143 25.463235696031 
42.643913109782 27.770799397803 25.485517528602 42.638487844984 27.732557430998 25.505564211448 42.637839760613 27.728034856889 25.507929432872 
42.636888035914 27.720990463751  25.51166287575 42.632056223296  27.68501539314 25.530753640491 42.630175945225 27.670676469182 25.538401795187 
42.625508201963 27.635543817004 25.557089050698 42.622885242553 27.616088176763 25.567405067891 42.616901588691 27.573448347517  25.58981315132 
42.614165672236 27.555079777791 25.599330915584 42.606728232838 27.506912967473 25.624063772686 42.603673690696 27.489093875701 25.632954470184 
42.596099085163 27.447044230228 25.653621525755 42.586121578541 27.401583112752 25.674436444727 42.583435781147 27.389539316344 25.679914505584 
42.569319098967 27.333233686974 25.704190900729 42.567869613875 27.327668500401 25.706544011861 42.551349057829 27.269755979305 25.729802608476 
42.550215545521 27.266022380682 25.731243575048 42.532283765513 27.211374692267 25.751188342463 42.530909275151 27.207383135597 25.752589809877 
42.511119345088 27.153843198883   25.7702310443 42.509101268391 27.148648958848 25.771858637227 42.488740303906 27.098777477546  25.78664377111 
42.485505103894 27.091248802367 25.788737713551 42.466347781377 27.048552761273 25.799920174622 42.453133000941 27.020925007702 25.806456435813 
42.443913900237 27.001949485532  25.81082363429 42.435181523758  26.98500629724 25.814295081627 42.419218075026  26.95391895888 25.820714672842 
42.392722983235 26.905511276161 25.829311003076  42.39226461125 26.904674456691 25.829459304817 42.391405057549  26.90319369475 25.829680299818 
42.363266687326 26.855086591819 25.836677804253 42.347792513492 26.829860915412 25.839732049267 42.331267418269 26.803028835978 25.842924792362 
42.299841523454 26.753951100864 25.847738386623 42.296598956608 26.748891122653 25.848232523316 42.278567986587 26.721742721111 25.850342105435 
42.259073918153 26.692478632036 25.852566559468 42.256017234049 26.688031358864 25.852824111414 42.218930840463 26.633820314989 25.856112134449 
42.215236201275 26.628587426513 25.856331414586 42.179001124604 26.577058198971 25.858616138014 42.175514574302 26.572251522726 25.858738195387 
42.140052417461 26.523262366451 25.860044093484 42.136684544679 26.518742320125 25.860082590456 42.101296955586 26.471159527062 25.860544448032 
42.098213238017 26.467129857557 25.860509332515   42.0627153119 26.420733577798 25.860110988091 42.059943847004 26.417217548116 25.860011264115 
42.024256262141 26.372080761943 25.858637799423 42.021943206658 26.369246681192 25.858489772383 41.985603046155 26.325050817404 25.855951082093 
41.983906604685 26.323057181706 25.855787691001 41.946497208056  26.27958494521 25.851867841204 41.945785184427  26.27878515091 25.851775402009 
41.926371595518 26.257310643844 25.849040594482 41.907521552805 26.236472582533 25.846376734868 41.906838425295 26.235730474901 25.846271762483 
41.869094222622 26.196117619746 25.839574519157 41.866149551104 26.193094635665 25.839008470533 41.831633465681 26.158792916664 25.831642619043 
 41.82535632082 26.152713110958 25.830200839401 41.795006586999 26.124442454309 25.822503755671 41.782207835993 26.112871773666 25.819031065068 
41.759191504909 26.092793107762 25.812315350024 41.729168123842 26.067721579114 25.802832268149  41.72172616678 26.061699350011 25.800357548955 
 41.70431280884 26.048405523657 25.794052188521 41.680901983668 26.030554970402 25.785561014049 41.670639252265 26.023063112384 25.781623495284 
41.636700337187 25.999086555074 25.768086313492 41.612920894675 25.983068357353 25.758097256567 41.590913573012 25.968508366894 25.748681898792 
41.556951544191  25.94714002825 25.733441390307 41.543959069278  25.93916703269 25.727480835607 41.502635831429 25.915107866903 25.707684266295 
41.495747126498 25.911216381976 25.704307146923 41.448562207736 25.886143261643 25.680154036553 41.445607048662 25.884622152121 25.678609584142 
41.393729392353 25.859742057205 25.650320151045 41.393315498536 25.859550259007 25.650090124433 41.383178745475 25.855156920056 25.644260253043 
41.339505617355 25.836211976902 25.619153653129 41.337765795217 25.835496451861 25.618128174931 41.284589316802 25.814692868564 25.586097075788 
41.281312029883 25.813477127433 25.584080131859 41.229240800748 25.795232878576 25.551341875097 41.225042084643 25.793836260705  25.54865397306 
41.174317868134 25.778083529525 25.515459012072 41.169645530234 25.776708619056 25.512352208406 41.120100632495 25.763164935754  25.47873951521 
41.115182130859 25.761874103974 25.475367999511 41.067019244751 25.750055747441 25.441823087125 41.061451392897 25.748712090269 25.437930552914 
41.015511142521 25.738283751851 25.405388490958  41.00880167815 25.736743407618 25.400646973637 40.965264569797 25.727263541572 25.369547084689 
40.957176397233 25.725442833955 25.363807907752 40.915820322216 25.716539321252 25.334200512953  40.90690555633 25.714516617434 25.327885083499 
40.865580394053 25.705584933463 25.298322299529 40.856609188251 25.703510736828 25.291991858581 40.812910797537 25.693799460579 25.260903464485 
40.805728610268 25.692064351263 25.255883543827 40.767398411016 25.683016399198 25.228956143308 40.757084791741 25.680574392942 25.221715515649 
40.754640482328  25.68001658779 25.219985979451 40.711183730679 25.669340928631 25.189726652909 40.686441859178 25.663313671426 25.172465827861 
40.666503186639  25.65816499032 25.158744053604 40.638613149691 25.650862194977 25.139615266094 40.621825827272 25.646514149285 25.128070719615 
40.609471122515 25.643371992102 25.119537145973 40.578327042949 25.634954665955 25.098345955827 40.542421106733 25.625633240507 25.073667532463 
40.533405558187 25.623127720757 25.067577596587 40.493816203237 25.612682808775 25.040475486315 40.483212078862 25.609746975925 25.033305269531 
40.449170278243 25.600878584326 25.009928031706  40.42345967318 25.594148567547 24.992292676763 40.402858819369 25.589080708838 24.977952647277 
40.358046973146    25.578335667 24.946579662951 40.354994757697 25.577565324365 24.944467629876 40.353355251513 25.577155925765 24.943330309618 
40.306847252319 25.566174711679 24.910659763737 40.274281655083 25.558637034509 24.887685545897 40.257998623448 25.555122226466 24.876034264756 
40.230667354891 25.549416818335 24.856352066972 40.208739688726 25.544453360041 24.840810383149 40.196056673154 25.541685769579 24.831754365775 
40.158909903131 25.534229015019 24.804811560427 40.119097652532 25.526746745802 24.775606558297  40.10817823972 25.524916448492 24.767453200612 
40.084855256908 25.521322503102 24.749834687785 40.056478116073 25.516485671053 24.728697741445 40.042836108435 25.514318439032 24.718434378261 
40.004592467762 25.509146786321 24.689078880086  39.96817695415 25.504862602356 24.660713363064  39.95664346579 25.503774668545 24.651555859611 
39.939764729399 25.502522121701 24.637935065667 39.913691178536 25.500044398872 24.617244641706 39.895110123648 25.498599418199 24.602292782907 
 39.87789904102 25.497419704576 24.588340860015 39.848813227854 25.495208907365 24.564903016555 39.837876269482 25.494715074143 24.555871991388 
39.802928279155 25.492701572976 24.527295337998 39.793473426263 25.492551951153  24.51930915176 39.754943483521 25.491307830259 24.487173734996 
39.746250922531 25.491417069754 24.479672125668 39.706240820843  25.49112595149 24.445656201238  39.69814285161 25.491475723101 24.438507636549 
39.657530741292  25.49220955123 24.403315478971 39.649655901931 25.492769739356 24.396221842754  39.60912120451  25.49435745551 24.360544691615 
39.601330359443 25.495101195314 24.353404380503 39.561654402915 25.497290762689 24.318072863598 39.553197105098 25.498354848111   24.3101560369 
39.515957602673 25.501500078826  24.27629052917 39.504973139784  25.50324303316 24.265775079504 39.471972257775  25.50677861861 24.235281115429 
39.452989823178 25.510668262284   24.2165427027 39.428233735929 25.513940466975 24.193267057488 39.392116086133 25.522533531032 24.156844101979 
39.382403679206 25.523981840547   24.1476062965  39.36716744489 25.527882137207 24.132063559243 39.336760142854 25.535267395041 24.101301887364 
39.303337913337 25.549574940904 24.063494577935 39.293070671885 25.553023540774 24.052491297167 39.287884090893 25.555519010113 24.046446603475 
 39.24986318061 25.575924473124  24.00077185685 39.236584753076 25.584908251573 23.983621495955 39.210560641262 25.604222649768 23.948906839267 
39.196537020494 25.617314662999 23.928467621754 39.173959543678 25.641398829741 23.893620608278 39.164296162881 25.654184533449 23.877106591195 
39.139678721321 25.689484070668 23.833276294062 39.137461969415 25.693271877834 23.828936262683 39.116508143768 25.734075552414 23.784685077025 
39.115129290753 25.739076312727 23.780278405062 39.100840598547 25.777382196671 23.743337396426 39.092746519144 25.812229017438 23.713924813559 
39.089441545903 25.823328613331 23.703934830207 39.086978867954 25.837035094639  23.69298220166 39.081529204214 25.870475174256 23.666738307893 
39.079204862948 25.897867100811 23.647070184744 39.076259801632 25.918162154921 23.631452348368 39.073881588061 25.941261153859 23.614509193203 
39.071864031445 25.965518535472 23.597126637297 39.070780890829 25.986818505195 23.582451861336 39.068470973461 26.012635735344 23.563812512517 
39.066805396199 26.038367543827 23.545779135633 39.065881930462 26.059601703249 23.531283342129 39.065289852078 26.081121916932 23.516886201192 
39.063714979718 26.106415687789 23.499213113034 39.062369104154 26.129159414664 23.483381805968 39.061416741876 26.153121586972 23.467100416746 
39.060250497077 26.178206059228 23.449911755334 39.058621924937  26.19948764597   23.4347825668 39.056728993619 26.219585809018 23.420191265667 
39.054624022832 26.245374175118 23.401745752913  39.05235570063 26.270480085402 23.383601109599 39.049953088404 26.291608848857  23.36790885486 
39.047244891503 26.315784473534 23.349988657279 39.044797986011 26.338760246709   23.3330663192 39.042907408621 26.357995403185 23.319034088584 
39.039405055058 26.387815924533 23.296791283626 39.035248035449 26.427583951115 23.267567847782 39.033947622737 26.440246706512 23.258282526475 
  39.0332338978 26.448886209198 23.252095703944 39.028878820565 26.493822362424 23.219367002004 39.026479011271 26.528870512908 23.194692381549 
39.024925660257 26.549449271608 23.180081163334   39.0227181772 26.591075078351 23.151325177286 39.022047515419 26.603832680712 23.142516995139 
39.020525120009 26.648070412803 23.112660717016 39.020300447241 26.657103235248 23.106638093235 39.019934973835 26.702161540235 23.077241176763 
39.019958376679 26.709249400598 23.072686072606 39.020793094529 26.755667794169 23.043437258273 39.021012425179  26.76231771983 23.039332329367 
39.023191605272 26.808967920754 23.011083240684 39.023650697723 26.816390765815 23.006684371123 39.027125883768   26.8627042562 22.979760553807 
39.027987295569 26.872282030119 22.974314643787 39.032614671124 26.916823312341 22.949519744873 39.034273238326 26.930278960957 22.942252195369 
 39.03993713478 26.971048765398 22.920777831531 39.043124697482 26.990681363116 22.910830258941 39.049441600537 27.025215411861 22.893939227018 
39.055536292794 27.053959165033 22.880595783101 39.061416028099 27.078653457054 22.869682445055 39.072950068976 27.120822096178  22.85232342303 
39.076102378391 27.131450828379 22.848157577351 39.085774344486 27.160966618745 22.837373934628 39.093328011716 27.183664131892 22.829180499284 
39.096480550572 27.192396962626 22.826238626573 39.112923174172  27.23539285648 22.812541873008 39.125935744795 27.267151608023 22.803166247575 
39.134426717672 27.287051995398 22.797579600119 39.153592766929  27.32929927021 22.786694271473 39.157769236896 27.338427124871 22.784372754823 
39.159947523054 27.342924415364 22.783331992558 39.183008978022 27.389164108683 22.773199720391 39.199944525296 27.421265841861 22.766956379707 
39.209837861739 27.439402514456 22.763707037103 39.225973113429 27.467380084072 22.759441627303 39.238444414808 27.489020573793  22.75613447245 
39.247407304732 27.503813508165 22.754248044086  39.26901022124 27.538057177979 22.750612155219 39.298947193671 27.583693244222 22.746747258143 
39.301122985238 27.587031846996 22.746452279374 39.302855153414 27.589614958448 22.746265714486 39.334993429521 27.635480415098 22.744134599798 
39.363770883926  27.67581271377 22.742701958744  39.36981662422 27.683906480822 22.742645932485 39.377874538056 27.694595428399 22.742634921923 
39.405706254459 27.731701524033 22.742476255477 39.426966914786  27.75976998509 22.742533786076 39.441974007891 27.778818941311 22.743067226121 
39.461949450781 27.803948473316 22.743923085956 39.478534356752 27.824920515402 22.744564042757   39.4915111865 27.841137650536 22.745189750523 
39.514945445557 27.869423271243  22.74696527388 39.541453482962 27.900963228241 22.749267882226 39.550387769938 27.911675125217 22.749991252059 
39.558968396697 27.921823681498 22.750775913061 39.586704173469 27.953771444956 22.753864858138 39.622189566156 27.994017351924  22.75822246417 
 39.62541050265 27.997616288777 22.758652917069 39.629673092732  28.00231504972 22.759263938365 39.663476451746 28.039768788804 22.763985911157 
39.697985206595 28.077500267678 22.769131635769 39.700428785944 28.080154486751 22.769507343152 39.701815360607 28.081642311914 22.769732328642 
39.738808360194 28.121609062069 22.775558949373 39.746485950646 28.129775877777 22.776850807385 39.780907494895 28.166576265348  22.78252298329 
39.787491660972 28.173507156312 22.783677866084 39.826235564975 28.214439529034 22.790378004716 39.829311894246 28.217648464603 22.790936575944 
39.858769805325 28.248393965892 22.796273781998 39.872224772539 28.262476627921 22.798686011283 39.873677404812 28.264004858405 22.798941387056 
39.914741383481 28.306491422253 22.806621703426  39.92135674948 28.313293513425 22.807886396803 39.956638538872 28.349069107227 22.814955468578 
39.968566715312 28.360966815155  22.81747283101 39.997602913687 28.389431602267 22.823921691126 40.014918593378 28.405962972921 22.828053760614 
40.037813017297 28.427428095846 22.833770321814  40.06032232915 28.447800096579 22.839863252875  40.07766942612  28.46318511931  22.84476213128 
40.104982343752 28.486470288004 22.853081161457 40.117926082134 28.497233091865 22.857199271585 40.149434927648 28.522227519561 22.868002014898 
40.158533685349 28.529249619758 22.871247697627   40.1940222609 28.555088147913 22.884907778115 40.199722988019 28.559086413182 22.887200393819 
40.241285097644 28.586282591569 22.905176273833  40.24179846104 28.586610375655  22.90540355809 40.244208951276 28.588023201226 22.906552279702 
40.284765869758  28.61224172934 22.925590871825 40.293426976098 28.616997789489  22.92992511104 40.331793753901 28.637242590608  22.94965637861 
40.347751903002 28.645008907266 22.958285637182 40.384600086118 28.661843274512 22.978920073941 40.402268592513 28.669322822967 22.989196587516 
40.440792535079 28.684426142034 23.012380963993  40.45493560281 28.689559176519 23.021158291089 40.498548102683 28.703478291768 23.049457159944 
 40.50284834721 28.704792330001 23.052285160557 40.518888989379 28.708896560155 23.063348764383 40.547897316423 28.716728543817 23.083091972404 
40.555952731204 28.718637527402 23.088746164514 40.592326071564 28.727162223315 23.114338439675 40.607885345782 28.730640556733 23.125394538893 
40.637467452061  28.73695280517 23.146609226309 40.658433931671  28.74120872933 23.161785913933 40.683588867416 28.746231739655 23.180048086111 
40.710343073284 28.751380819146 23.199596066571 40.730742827391 28.755388637174 23.214448420778 40.763287541858 28.761509921767 23.238319047163 
40.778410964303 28.764364847217 23.249404946179 40.817043982293 28.771135369186 23.278061268395 40.826355715242 28.772711633667 23.285004227164 
40.871348681693 28.779469588063 23.319105654513 40.874691775934 28.779958435346 23.321648055215 40.903112469669 28.783482696561 23.343669479443 
40.923291696268 28.786142833378 23.359203217708 40.925674194841 28.786426484079 23.361056875764 40.972197903058  28.79184713747 23.397330112033 
  40.9802906213 28.792750310309 23.403665430336 41.021507097942 28.797102110205 23.436091549689 41.035301404863 28.798411077068 23.447039108166 
41.070143580442 28.801458142666 23.474858151833 41.090052750999 28.802925155621 23.490931168681  41.11780397447   28.8049426649 23.513352862608 
41.144432364532 28.806453693264 23.535141594739  41.16319598628  28.80774924012 23.550345983658 41.197198402419  28.80966014863 23.578180506623 

POLYGONS 1 451
450 0 1 2 3 4 5 6 7 8 9 10 11 12 13 14 15 16 17 18 19 20 21 22 23 24 25 26 27 28 29 30 31 32 33 34 35 36 37 38 39 40 41 42 43 44 45 46 47 48 49 50 51 52 53 54 55 56 57 58 59 60 61 62 63 64 65 66 67 68 69 70 71 72 73 74 75 76 77 78 79 80 81 82 83 84 85 86 87 88 89 90 91 92 93 94 95 96 97 98 99 100 101 102 103 104 105 106 107 108 109 110 111 112 113 114 115 116 117 118 119 120 121 122 123 124 125 126 127 128 129 130 131 132 133 134 135 136 137 138 139 140 141 142 143 144 145 146 147 148 149 150 151 152 153 154 155 156 157 158 159 160 161 162 163 164 165 166 167 168 169 170 171 172 173 174 175 176 177 178 179 180 181 182 183 184 185 186 187 188 189 190 191 192 193 194 195 196 197 198 199 200 201 202 203 204 205 206 207 208 209 210 211 212 213 214 215 216 217 218 219 220 221 222 223 224 225 226 227 228 229 230 231 232 233 234 235 236 237 238 239 240 241 242 243 244 245 246 247 248 249 250 251 252 253 254 255 256 257 258 259 260 261 262 263 264 265 266 267 268 269 270 271 272 273 274 275 276 277 278 279 280 281 282 283 284 285 286 287 288 289 290 291 292 293 294 295 296 297 298 299 300 301 302 303 304 305 306 307 308 309 310 311 312 313 314 315 316 317 318 319 320 321 322 323 324 325 326 327 328 329 330 331 332 333 334 335 336 337 338 339 340 341 342 343 344 345 346 347 348 349 350 351 352 353 354 355 356 357 358 359 360 361 362 363 364 365 366 367 368 369 370 371 372 373 374 375 376 377 378 379 380 381 382 383 384 385 386 387 388 389 390 391 392 393 394 395 396 397 398 399 400 401 402 403 404 405 406 407 408 409 410 411 412 413 414 415 416 417 418 419 420 421 422 423 424 425 426 427 428 429 430 431 432 433 434 435 436 437 438 439 440 441 442 443 444 445 446 447 448 449 

CELL_DATA 1
FIELD FieldData 6
ClosedSection 1 1 int
1 
SectionArea 1 1 double
        13.9088 
SectionLength 1 1 double
        13.6102 
SectionMinSize 1 1 double
        1.76209 
SectionMaxSize 1 1 double
        2.46225 
SectionShapeFactor 1 1 double
       0.715641 
