# vtk DataFile Version 4.2
vtk output
ASCII
DATASET POLYDATA
POINTS 605 double
32.555749215261 44.219876112847 39.389665971643 32.521393174062 44.251571533247 39.386307433804 32.489839099492  44.28163613118 39.383291030245 
32.477636205409 44.293117276829 39.382114078358 32.464000356521 44.306201262389 39.380817126897  32.43377006232 44.335042556553 39.377929986027 
 32.40484396373 44.362873273404 39.375184111578 32.389553960622 44.377431727682 39.373721766963 32.374376832964 44.391860430112 39.372268624997 
32.344782661654 44.419813602251 39.369422128936 32.312502763784 44.450188122452 39.366309052884 32.299399072579 44.462409706541 39.365037564027 
32.288276083434 44.472731093951 39.363954490959 32.252992398574 44.505177365279 39.360497765322 32.210331528888 44.544176456837 39.356301775662 
32.206360279829 44.547775005675 39.355908900174 32.203423440009 44.550416308906 39.355616934782 32.159361902274 44.589647844997 39.351208246879 
32.125354718574 44.619456158732 39.347771894148 32.112588753476 44.630541902923 39.346474484305 32.091120529665 44.648688386612 39.344257185249 
32.066049844833  44.66971545138 39.341656053485 32.050856810651 44.682073377663 39.340052244672 32.019926409939 44.706974393324 39.336768747959 
31.977774409787 44.739634284234 39.332202811386 31.975080330811 44.741698915405  39.33190935831  31.97082280437 44.744835841449 39.331436606802 
31.930294887525 44.774511680943 39.326923203443 31.905883018047 44.791672513744 39.324153493792 31.886358735709 44.805300246815 39.321931362762 
31.855748647176 44.825821237448 39.318387131475 31.842697640117  44.83451797756 39.316872238136 31.834475732907 44.839773935238 39.315901948622 
31.798729410907 44.862533298521 39.311676855864 31.759862148211 44.886405196919 39.307020348111 31.754454620035 44.889713260506 39.306371554097 
31.746580129124 44.894391998509 39.305416872002 31.709376874161 44.916333164264 39.300894747288 31.683288806412 44.931321587871   39.2976952799 
31.663373715163 44.942760569147 39.295252667385 31.631618327652 44.960591548647 39.291328588461 31.616577533933 44.968967443109 39.289464985189 
31.607004317066  44.97417741328 39.288270170244 31.568886676347 44.994886457464 39.283510243753 31.529633987872 45.015658459939 39.278568988104 
31.520223354981 45.020624579107 39.277383355914 31.504389622735 45.028742778423 39.275371506773 31.470898066574 45.045800196677 39.271107870789 
31.450636739518 45.055823099225 39.268507321244 31.420968796389 45.070455475237  39.26469629661 31.371199499085 45.094229999227 39.258247938436 
 31.37085793256  45.09439279106 39.258203656731 31.370288885988 45.094654636646 39.258129214292 31.320625793342 45.117352307912 39.251621247937 
31.288777725295 45.131391762924 39.247410897402 31.270743768323 45.139321391712 39.245025343082 31.246024994123 45.149765818147 39.241725156842 
31.221260047278 45.160183774117 39.238415518522   31.2016302993 45.168160701499  39.23577208218  31.17243239962 45.180058021575  39.23184245405 
31.139750699388 45.192959137141 39.227414228284 31.124507241335 45.198934390084 39.225345796344 31.110626142537 45.204220242912 39.223451117913 
31.077286529127 45.217073535476 39.218911758789  31.04183674101  45.23040403922 39.214061041607 31.031047859872 45.234410198777 39.212581123637 
31.021247913676 45.237877250624 39.211224567972 30.983517019856 45.251700331232 39.206035606463 30.941795741579 45.266266203005    39.200246447 
30.932194292711 45.269792382968 39.198926617164  30.91655347286 45.275294826782  39.19675932256 30.879779014299 45.287905233336   39.1916402418 
30.849397992345 45.297664253313 39.187364021485 30.825792515008 45.305573225471 39.184064817332 30.803472096862 45.312716512351 39.180921256604 
30.771633639083 45.322252334102 39.176390465066 30.738860008462 45.331939813696 39.171717410125 30.719348776851 45.337933965992 39.168951606904 
30.696697874304 45.344740269357 39.165729844392 30.667721827416 45.353104883354  39.16158394603 30.643254431682 45.359966032147 39.158068707601 
30.614877378046 45.368116333509 39.154005553223 30.582431858685 45.377016848135 39.149329948064 30.561874881225 45.382461213925 39.146353624366 
30.542190311742 45.387344389906  39.14348000621 30.508734032905 45.395707037492  39.13860046082  30.47616412382 45.403092733501 39.133796179409 
30.455511365284 45.407606924007 39.130737665884 30.431611592423 45.412156650914 39.127150089995 30.402424444643 45.417775332186 39.122773293051 
30.378965770162 45.421555593031 39.119202916456 30.349390105845 45.426055792919 39.114682538769 30.308465265459 45.430868624843  39.10832642026 
30.296577031363 45.432306280954  39.10648286489  30.28836632289 45.432992138659 39.105187641999 30.243903879115 45.436255639581 39.098141566052 
30.201023136147 45.437729622908 39.091226494822 30.191361281735 45.437959386295 39.089661078182 30.176465777887 45.437735390346 39.087206360864 
30.139023246943 45.437304626279 39.081045445776 30.114390158207 45.436041768461 39.076922205168 30.086819033971 45.434331828064 39.072285980652 
30.045849591047 45.430248296284 39.065286460646  30.03524022618 45.429245067918 39.063477756814 30.027763738012  45.42826284655 39.062183471572 
 29.98442769637 45.422131172503 39.054650046241 29.940351954099 45.414109644651 39.046860390163 29.934443919916 45.412982930537 39.045812561828 
29.926950265543  45.41122586304  39.04446006383 29.885487418054 45.401704436674 39.036990948267 29.850828154992 45.392143237916 39.030632876112 
 29.83568578295 45.387872017771  39.02784836069 29.814376035183  45.38092140496 39.023862539258 29.784108131336 45.371124311674  39.01820655653 
29.764412479158 45.363816406012 39.014459449051 29.728621196785 45.350429254609 39.007642482431 29.671743853595 45.326689951282 38.996633103009 
29.667363084444 45.324845993448 38.995784035814 29.661352517586 45.321999501836 38.994596454906 29.606537061987 45.296215257212 38.983778433631 
29.553812247457 45.267386621275 38.973085016338 29.546627033151 45.263510885688 38.971631529401 29.541546948385  45.26048889681 38.970583739379 
29.487554549832 45.228402371771 38.959449850006 29.451769841257 45.205542759428 38.951956668966 29.433437761782 45.193753748787  38.94811240287 
29.404709515195  45.17412553736 38.942005558766 29.382572730653 45.159232002087 38.937316407234 29.368970001224 45.149623418638 38.934402336124 
29.333936468717 45.124744929048 38.926887786312 29.294569482092 45.095142916188 38.918326023868 29.287829953403 45.090152346421 38.916865793075 
29.273667418799 45.078864163851 38.913739977242 29.240635698588 45.052625531327 38.906455913798 29.231319256028  45.04482791177 38.904373082082 
29.190616124331 45.010960725067 38.895287600805 29.171493899041 44.994384629574  38.89097169005 29.141186993014 44.968017900358 38.884124575875 
29.109059974674 44.939023846169 38.876791615319 29.095126067361 44.926344902193 38.873603789623 29.065294184644  44.89854987709 38.866732321944 
29.051259400579 44.885432365438 38.863496622603 29.043809902986  44.87829736364 38.861766826157 29.009136127246 44.845076503068  38.85371468786 
28.974820699387 44.811506586792 38.845696260665 28.967885151867 44.804685155372 38.844073029055 28.958327415657 44.795093002759 38.841822381633 
28.927180667587  44.76368812639 38.834477535288 28.909080410938 44.745146874606 38.830188431196 28.886331075751 44.721389670215 38.824765231038 
28.856298943141 44.689256372649 38.817550787382 28.843699377698 44.675373772374 38.814495358326 28.809534735392 44.636553136295  38.80612618598 
28.799511492209 44.624901373148 38.803652061191 28.764716396575  44.58317640363   38.7949720078  28.75357169874 44.569496425441 38.792169258283 
28.720216865265 44.527261943059 38.783688574837 28.704834756682 44.507470480276 38.779755096308 28.675165144238 44.467840126721 38.772063957483 
28.655507174141 44.441181711334  38.76693943802 28.626129167673 44.398885643309 38.759105439788  28.61441880783 44.381787629686 38.755965686683 
28.582071557503 44.331885508431 38.747101721338 28.577103660773 44.324040613827 38.745727456101 28.544269442291 44.269169532968 38.736428478305 
28.543186478325 44.267301232115 38.736117589325 28.527389647369 44.238420438575 38.731466315702 28.511851432461 44.210039919229 38.726893152981 
28.510924496244 44.208244302754 38.726613005971 28.483207593944 44.152230048723 38.718070100384 28.481440345947 44.148435145171 38.717509425915 
 28.45704109848 44.094115123718  38.70963082826 28.454985541894 44.089247886879 38.708946278794   28.4331993711 44.036047523369 38.701575552409 
28.430978610382 44.030268202183  38.70079874065 28.411451691833 43.978393528551 38.693892688669 28.408853226008 43.971031618699 38.692940882074 
28.391341983918 43.920922120088 38.686491049754 28.388091102918 43.910969022418 38.685247156741 28.372722958172 43.863158975161 38.679312606816 
28.368615822102 43.849442387961 38.677659433812 28.355468163086 43.804511672926 38.672294298436 28.350503416362 43.786396221204 38.670186193538 
 28.33927144516 43.744635206616 38.665361332628 28.333548549029 43.721925547423 38.662800612474 28.323882076605 43.682809613385 38.658421181997 
28.317998659549 43.656484754236 38.655575690745 28.309474031067 43.618142713146 38.651438537826 28.304159330844  43.59045057708 38.648588395553 
28.296155091241 43.549110636081 38.644322088111 28.292157058117 43.524215925616 38.641887530217 28.284099746682 43.473832571037 38.636965920462 
28.282138787118 43.457769198528 38.635496323282 28.275206778058 43.399418168605 38.630189251779 28.274279534255  43.39212678401 38.629516101347 
28.274019444287 43.389924154252 38.629316028962 28.268385489501 43.328771048054   38.6240211244 28.265512390989 43.289180816239 38.620719996649 
28.264179860343 43.266992651543  38.61891535732 28.263107272616  43.24113064745 38.616890592722 28.260592193616 43.206182989328  38.61398002894 
28.258709825249 43.172804996591 38.611285285634 28.257634581353 43.147414962604 38.609293832513 28.257093751226 43.123196240972 38.607473623992 
[...]
CELL_DATA 1
FIELD FieldData 6
ClosedSection 1 1 int
1 
SectionArea 1 1 double
        24.5317 
SectionLength 1 1 double
        18.2978 
SectionMinSize 1 1 double
        2.15173 
SectionMaxSize 1 1 double
        3.31584 
SectionShapeFactor 1 1 double
       0.648923 
