# vtk DataFile Version 4.2
vtk output
ASCII
DATASET POLYDATA
POINTS 256 double
 28.42185827435 22.622751252273 27.780567297477 28.457958760524 22.596346047507 27.805016794971 28.462653999499 22.593171917921 27.808208267118 
28.464455110783 22.591996554503 27.809434405699 28.503397598765 22.563430817382 27.835805048047  28.51875790418 22.552828904504 27.846236149777 
28.543997365687 22.533111830677 27.863274051423 28.569881006551 22.514002272396 27.880796182398 28.584131420793 22.502088771811 27.890381205356 
28.618225511843 22.475149480593 27.913382868608 28.623819636346 22.470144263525 27.917130951672 28.657888755228  22.44109508759 27.940021099811 
28.663335018137  22.43655542165 27.943684929244 28.664238183788 22.435815875987 27.944293100268 28.702433263081 22.400842755735 27.969848422698 
28.708554970426 22.395389873717 27.973951071788 28.742430855192 22.361211036392 27.996476038632 28.753000168777 22.350751605681 28.003512939611 
28.782806186732 22.317632752558 28.023196329067 28.798673746447 22.300011075395 28.033675419362 28.820752583795 22.272094612124 28.048105497075 
28.847689921867 22.235295731583 28.065589176504 28.849673988086 22.232421779214 28.066869665071 28.851743767943 22.229279193589 28.068199049662 
28.875637512501 22.194399305439 28.083607761989 28.887297397354 22.175949434478    28.091063527  28.90096011668  22.15458610716 28.099811345782 
28.915571448045 22.128854777509 28.109038297032 28.926109106632 22.110145497845 28.115686000494 28.941731820684 22.079157629557  28.12539713936 
28.950606486872 22.061502894124 28.130911367051  28.96606985261 22.027113244319  28.14035818521 28.973560165558 22.010459648561 28.144934334732 
28.988440708987  21.97350629626 28.153853515225 28.994994424743 21.957324003554 28.157785840636  29.00898432529 21.918486554494 28.165989110015 
29.014835305157 21.902435306091 28.169428475145 29.027837631912 21.862051603996 28.176862052234 29.033193487381 21.845485026338 28.179927081719 
29.044980545139 21.803690848587 28.186435389456 29.049859874017  21.78627202978 28.189124306886 29.060097549109 21.743322193587 28.194481526522 
29.064375398942 21.724535031033 28.196682701306  29.07266660731 21.680907205162 28.200628225572 29.076263534154 21.660176521442 28.202259701956 
29.082333846587 21.616586462097 28.204630564808 29.085098149997 21.593687255226 28.205574667361  29.08894736899 21.550955438562 28.206407201142 
 29.09072149678 21.525489299477 28.206534392558 29.092456266644 21.484231079877 28.205931645192 29.093007736405 21.456560109502 28.205093011298 
29.092690366514 21.416589785752 28.203090953575 29.091743645339 21.387846464747 28.201141269552 29.089290987637 21.348424931197 28.197648029542 
 29.08674246059 21.320494233562 28.194597544441  29.08183198609 21.280323906401 28.189326517241 29.077958094969 21.255439175716 28.185470721567 
 29.06997788692 21.212964013148 28.177918412371 29.065556071508 21.193302897739 28.173905917526 29.053510341176 21.147281421438 28.163310351382 
29.049599787582 21.134501436385  28.15996662433 29.031736474848 21.083237614847 28.145008836261 29.030015200934 21.078859622901 28.143592501753 
29.019944174161 21.055982913526 28.135427385756 29.006950118537 21.026101702735 28.124876201661 29.004305134211 21.020563858197 28.122752680215 
28.980416357441 20.975720229617 28.103803554073 28.970612420921 20.958734773459 28.096089895688 28.950473044789 20.927196609594 28.080393473065 
28.930594704909 20.898341231313 28.065001585441 28.916802628238 20.880192586911 28.054405530933  28.88557531263 20.841384439428 28.030515975236 
28.879860355485 20.834953152546  28.02617374245 28.855733275203  20.80867636161 28.007880823408 28.841073286507 20.792450434383 27.996754215458 
28.837571088903 20.788694542496 27.994101476903 28.800203318732 20.752645344503 27.965976212721 28.785745141218 20.739170216239 27.955115126585 
28.758752724832 20.716413792489 27.934944949121 28.728494801751 20.692424805595 27.912402200028 28.715038546343 20.682975661541 27.902431221472 
28.688044991985 20.665478369864 27.882494019863 28.666830015101 20.650849902272 27.866785845542 28.655800097118 20.643044795074 27.858610106989 
28.616206376433 20.618242362425 27.829404866038 28.585080528461 20.598161862148  27.80641982754 28.551227501852 20.581984775676 27.781672619101 
28.531937304451 20.571012147853 27.767493121061 28.485084286805  20.54992967125 27.733300762839 28.481810134054 20.548162847965  27.73089830504 
28.467881762448 20.542015440123 27.720739001074 28.434154339381 20.526685234657 27.696118589404 28.426542303453 20.523982166382 27.690595584303 
28.386954646123 20.506384697666 27.661714928369  28.36989577242 20.500640911232  27.64935160901 28.339330923701 20.486994528596 27.627050769777 
28.313504767289 20.478680629159 27.608350388283 28.291117640234 20.468848886215 27.592023477272 28.255588986844 20.458171177068 27.566331411097 
 28.24183969655 20.452270497464 27.556310182659 28.195150045953 20.439200016492 27.522589934838 28.191478616683 20.437586522322 27.519912315332 
 28.17396463608 20.432658009608 27.507262212952 28.138938583668 20.421604049148 27.481910155799 28.131478857224 20.420486790473 27.476565750227 
28.084660865519 20.406034037101 27.442692962887 28.066099563567 20.404451389292 27.429448229516 28.029855446409 20.399117050992 27.403485872028 
28.000055207086 20.401470786022 27.382438986042 27.976353858828 20.402973070606 27.365683101562 27.932594391451 20.414635630049 27.335142084442 
 27.92821256206 20.415821485857  27.33208467863  27.92125615481 20.419229246108 27.327298667425 27.883269078695 20.430991854291 27.300859206727 
27.863798882246 20.440113955052 27.287445218089 27.841579283048 20.450830606405 27.272150649734 27.814905313352 20.467719300223 27.253968837929 
 27.80250491902 20.473624472591 27.245429828559 27.793507348356 20.479264188801 27.239294263937 27.765419045925 20.497035475987 27.220147825492 
27.733679569524 20.519856728828 27.198634354252 27.729398111957 20.522410738918 27.195709008422 27.726485458422 20.524238520365 27.193722924881 
27.692597728307  20.54800427306 27.170726658893 27.665449969953 20.567389880413 27.152319557922 27.653523443757 20.577100817864 27.144286066339 
    27.63238463 20.594597346796 27.130059999412 27.611251299176 20.610029689403 27.115746065119 27.600431045617 20.617704123416 27.108407251665 
27.566389327366 20.646461717732 27.085523590214 27.527137053412 20.681727268608 27.059230895003 27.524180979919 20.684635557098 27.057262024635 
27.518286619214 20.690303147385   27.0533302853 27.481880226717 20.722488382181 27.028920601593 27.464440829203 20.737521122793  27.01721077173 
27.439918289585 20.762023000391 27.000894422857 27.413011956906 20.787905218218 26.982947473249 27.396845507756 20.805953072564 26.972275182993 
27.366816388972 20.837693261091 26.952372156151 27.350673939198 20.858918344992 26.941858137094 27.330284349024 20.883820719046 26.928493062765 
27.307743871305 20.915901946767  26.91392045923 27.297016824154  20.93054883224 26.906957747056 27.271087343679 20.970886994741 26.890346752765 
27.266262152012 20.978187509307 26.887246472913 27.238052695983  21.02682693111 26.869386219914 27.237280991413  21.02813800417 26.868896762943 
27.231104635803 21.039990900265 26.865039824838 27.210078639733 21.079903090879 26.851890273973 27.207823058276 21.084717278373 26.850503319247 
27.185129978501 21.133185573855 26.836550854664 27.180247301738 21.144912485492 26.833606539322 27.162563051055 21.187466487201 26.822946317665 
27.155430030684 21.206897901669 26.818747248138 27.142649837922  21.24238979897 26.811253881781 27.133763850232 21.270762293763 26.806208053611 
27.125743182851 21.297512713315 26.801704303742    27.115179187 21.337969984841 26.796004667551 27.111444357742 21.353132806237 26.794027803733 
27.100543873757 21.403443377645 26.788527343643 27.099032085343 21.410083737739 26.787749494536 27.098638232116 21.412051054039 26.787557399556 
27.088384303158 21.465984599623 26.782676900808 27.084751234803 21.488007072481 26.781077195766 27.079693826165 21.521958758315 26.778996815003 
27.075648994651 21.554270266813 26.777562227309 27.073689837402 21.571600185258 26.776942027859 27.070064242733 21.604165690512 26.775816295608 
27.067552427883 21.635627163829 26.775432020952 27.065586729597 21.662202164787 26.775218149359 27.063824937012 21.705252524472 26.775881382413 
27.063115073777 21.724128854535 26.776216645225 27.062880521678 21.776923275339 26.778397029598 27.062964552306  21.78924476259 26.779004398163 
27.065289984072 21.847961572436 26.783265066745 27.065730040786 21.855778967123 26.783924914457 27.071309668481 21.917779658815 26.790641313571 
27.071914653053 21.923285762309 26.791315479692 27.081015640827 21.986282891278 26.800575552737 27.081903985664 21.991600152513 26.801442446796 
27.094153215728 22.052982596271 26.812865291539 27.095777863269 22.060356818784 26.814346233972 27.110244216977 22.117697713052 26.827163082964 
27.113442027011 22.129507414141 26.829957789312 27.128692740164  22.18040890885 26.843045108534 27.134619566227 22.199091818728 26.848082340859 
27.148940194051 22.240762808496 26.860099184644  27.15899879198 22.268688057403 26.868479901053 27.170638616191  22.29878527121 26.878079485167 
27.186389037405 22.337993349481 26.891001679516 27.193358957741  22.35426282327 26.896671991697  27.21633133279 22.406198565969 26.915285942116 
 27.21692317081 22.407448147008 26.915761562442 27.218926058732 22.411586441122  26.91736712476  27.24149048999 22.458672780369 26.935475956226 
27.248201321439 22.472421967273 26.940850339137 27.266704452263 22.507945721724 26.955562563899 27.280834750164 22.534805710654 26.966785924308 
27.292332341701 22.555092210721 26.975848440511 27.312965708893 22.591762700543 26.992123633154 27.317305535614 22.598843997991 26.995518725211 
27.332015606164 22.622557690744  27.00701373283 27.342130489717 22.639032227702 27.014925382353 27.345658180785 22.644650314681 27.017678995507 
27.367226821402 22.676187885617 27.034389850439 27.387165452783  22.70453989562 27.049802155397 27.393579262596 22.712991755367 27.054730237821 
27.407171610621 22.730060517066  27.06513652569 27.423579087015 22.751302122287 27.077726421063 27.429749041927 22.759882223825 27.082487121671 
27.459640618393 22.793829830906 27.105212535801 27.469355049343 22.807074954664 27.112696396672 27.494027111673 22.832732494089 27.131348603775 
27.508149826284 22.846130738845 27.141968168458 27.520241926625 22.855951739521 27.150987431596 27.547596357438 22.882239798025 27.171571549806 
 27.58178833817 22.911034180674 27.197120215131 27.588322639413 22.916056090434 27.201981348417 27.596350539437 22.921205406965 27.207908266953 
27.630557815844 22.948688850905 27.233409513792 27.650011036333 22.965146186003 27.247948532855 27.682286027083 22.979169272693 27.271479936678 
27.700602191474 22.990224127967 27.284971744005 27.740676274119 23.001325391905 27.313908878301 27.749085109325 23.005129660016 27.320046384488 
27.768510986681  23.00654957754 27.333897539528 27.794794208999 23.009573382398 27.352687175831 27.812441872419  23.00561343718  27.36503704562 
27.838876990702 23.003928976963 27.383725198206 27.861031932803 22.994730655407 27.399041368589 27.881956440473 22.988608028261 27.413620928721 
 27.92005254063 22.966302695934 27.439669117706 27.925173624926 22.963862877862 27.443195487211 27.927334079619 22.962111131274 27.444651057489 
27.969859043391 22.939381860878 27.473823905521 27.994179740733 22.920210780187 27.490233960713 28.013803525445 22.909064074505 27.503666963209 
28.040889475807 22.886585123582 27.521892686279 28.056417645604 22.874469760234 27.532375657011 28.067204928263 22.864183293509 27.539574956113 
 28.09887353571 22.840828995328 27.561014430817 28.134738568698 22.812222317048 27.585198947284   28.1395435584 22.808482021637 27.588443150242 
28.143610145288 22.805166005269 27.591182112493 28.181018960914  22.78062284633 27.616643005079 28.217588892847 22.754733416548  27.64144863193 
28.219724602685 22.753252893824 27.642898695567 28.221948495929 22.751679727195 27.644407231446 28.259321720087 22.729395939881  27.66994329761 
28.285955814364  22.71294616457 27.688116317961 28.298799087497  22.70453172157 27.696858128093 28.321418068844 22.689294694974 27.712235224909 
28.339071519406  22.67868844123 27.724293754728 28.347360871596 22.673672333134 27.729954363536 28.380594905819 22.651522505753 27.752558483926 
28.407166654983 22.633716272615 27.770626954712 
POLYGONS 1 257
256 0 1 2 3 4 5 6 7 8 9 10 11 12 13 14 15 16 17 18 19 20 21 22 23 24 25 26 27 28 29 30 31 32 33 34 35 36 37 38 39 40 41 42 43 44 45 46 47 48 49 50 51 52 53 54 55 56 57 58 59 60 61 62 63 64 65 66 67 68 69 70 71 72 73 74 75 76 77 78 79 80 81 82 83 84 85 86 87 88 89 90 91 92 93 94 95 96 97 98 99 100 101 102 103 104 105 106 107 108 109 110 111 112 113 114 115 116 117 118 119 120 121 122 123 124 125 126 127 128 129 130 131 132 133 134 135 136 137 138 139 140 141 142 143 144 145 146 147 148 149 150 151 152 153 154 155 156 157 158 159 160 161 162 163 164 165 166 167 168 169 170 171 172 173 174 175 176 177 178 179 180 181 182 183 184 185 186 187 188 189 190 191 192 193 194 195 196 197 198 199 200 201 202 203 204 205 206 207 208 209 210 211 212 213 214 215 216 217 218 219 220 221 222 223 224 225 226 227 228 229 230 231 232 233 234 235 236 237 238 239 240 241 242 243 244 245 246 247 248 249 250 251 252 253 254 255 

CELL_DATA 1
FIELD FieldData 6
ClosedSection 1 1 int
1 
SectionArea 1 1 double
        4.72302 
SectionLength 1 1 double
        7.86859 
SectionMinSize 1 1 double
        1.04083 
SectionMaxSize 1 1 double
        1.37192 
SectionShapeFactor 1 1 double
       0.758669 
