# vtk DataFile Version 4.2
vtk output
ASCII
DATASET POLYDATA
POINTS 612 double
48.307383975696 38.213906619503 36.356004460625  48.31025961802 38.208982366727 36.344808932164 48.320135272561 38.191850984914 36.304809495143 
 48.33046725137 38.174059686811 36.263888994681 48.333117458608 38.169480181492 36.253280404127 48.335611053881 38.165197485762 36.243483120021 
48.345696120385  38.14755520497 36.201595947475 48.356814093874 38.128207571363 36.156133857557  48.35828115314  38.12565265383 36.150121419111 
48.359572926498 38.123417284811  36.14492793625   48.3704431529 38.104211764519 36.098443743272 48.382434210786 38.083197069483 36.048371447589 
48.382770308799 38.082595306227 36.046878249913  48.38316107255 38.081903525143 36.045197518376 48.394799243195 38.061280781799 35.995003931262 
48.405118751709 38.043083373584  35.95112194991  48.40696656251 38.039760657382 35.942811746976 48.409002300524 38.036098500197 35.933645727558 
48.418681856089 38.018657033691 35.889861688776 48.427758061593 38.002191835607 35.848025899836 48.430258490187 37.997562183978 35.835841285239 
48.432728772404 37.992922638959 35.823340865979 48.441160818265 37.977057577002 35.780471552798 48.449577857834 37.960979536458 35.735980006967 
48.451698359768 37.956837461192 35.724126679549 48.453706742042 37.952836404944 35.712350915488 48.461496560011 37.937335587132 35.666802794428 
48.468904026979 37.922214631059 35.620807683418 48.470564559564 37.918735171034 35.609864662987 48.472038307057 37.915525072868 35.599293315358 
48.478474442515 37.901567159383 35.553557144205 48.484362805184 37.888193012025 35.507459158134 48.485160985751 37.886307350674 35.500698084582 
48.485749006327 37.884806223084 35.494928826245 48.490470973204 37.872858443796 35.449351349096 48.493657388687  37.86384180661 35.411876306669 
 48.49396216876  37.86297626999 35.408270018554 48.496695981633 37.853570094466  35.36435659076 48.497344245948  37.85135831943 35.354075118871 
48.499056553956 37.842935843678 35.308748115445 48.500106986302 37.838260628784 35.284403720564 48.500723983227  37.83244984936 35.248524221766 
48.501670704608 37.825918261395 35.210261217619 48.501603813482 37.822614006345 35.186447835448 48.502014757406 37.815590999938 35.140349940689 
 48.50174516523 37.813829113999 35.125742283251 48.501203713331 37.807029062865  35.07343821961 48.500916947536 37.806279991661  35.06582217497 
48.499123578187  37.80021262762 35.008455731117  48.49901602366 37.800072622632 35.006591710409 48.497988213594 37.798530640864 34.987341825155 
48.495912955118 37.795263238249 34.947390007466 48.495711402733 37.794932405142 34.943414777714 48.491707978265 37.791620329535 34.887405284122 
48.490928809534 37.790944174632 34.876282310767 48.486557491206 37.788898473581 34.826186332072 48.484773147045 37.788030072984 34.805502576991 
48.480574217559 37.786954734501 34.763647021339 48.477125532948 37.786069703289 34.729257138572 48.473793671045 37.785742526818 34.699749278565 
48.467543144939 37.785273094733 34.645409376739 48.466222784232 37.785341036453 34.635107302107  48.46330039119 37.785665573252 34.613531778584 
 48.45784413488 37.786027245034   34.5715292354 48.454456071876 37.786520879785  34.54734232511 48.448572164384 37.787805288233 34.508345630536 
48.440728948877 37.789883007705 34.458937736249 48.438738674037 37.790324819916 34.445798585725  48.43686389866 37.790841452487 34.434129320966 
48.428366406052 37.793703646553 34.384903332335 48.419378502195 37.797043660036 34.335037840868 48.417745724277 37.797604508641 34.325655790553 
 48.41602918365 37.798257930216  34.31624169518 48.406460091852 37.802477279034  34.26782283939 48.397289671704 37.806908566591 34.224151448381 
48.394792536481 37.808010992756  34.21152565624 48.391749848939 37.809498096723 34.197154279366 48.382481253931 37.814353626677 34.155668652923 
48.374342506203 37.818998620276 34.121925501595 48.369607432944  37.82146175964 34.100608965738 48.362759655567 37.825381087608 34.072296496379 
48.356237409901 37.829205320645 34.045972311132 48.351406198226 37.832228273349 34.027812802824 48.342652776659 37.837201068844 33.991359205602 
48.329439238082 37.845266661847 33.940267835959 48.328616499912 37.845709495043 33.936668588511 48.327008124341 37.846660606745 33.930233853731 
48.314977018932 37.853660836039 33.881294964108 48.308000433209 37.858004424747 33.854918271933 48.300955809937 37.861999616801 33.825532797712 
48.286807294791 37.870795397038 33.771949206573 48.286111221881 37.871208693506 33.769176171052 48.285696472326 37.871474815131 33.767663741175 
48.271522249842 37.879963577637 33.711708359727 48.262570170271 37.885794556287 33.679675736899 48.255956305395 37.889755311375 33.653564831429 
48.241037706982 37.899458017823 33.600079865552 48.239688809636 37.900302241628 33.595011059491 48.238988217856 37.900773509843 33.592609341882 
48.224287857009 37.909731582082 33.535662830793 48.215857876025 37.915287852856 33.505958661247 48.208713881979 37.919435291953 33.476833905817 
48.192872648969 37.929545225437 33.418683333056 48.192841106645 37.929562126821 33.418544808724 48.192772261912 37.929603759756 33.418275866954 
48.178578222032 37.937717917716 33.359520866414 48.169757660918 37.943719836093 33.329765755117 48.162588818952 37.947872615935 33.300475728537 
48.144888058708 37.960635165225 33.245821120059 48.143527431996 37.961569042294 33.241287848026 48.142517928094 37.962393257737  33.23884923376 
48.123739214561 37.976400744977 33.184159692758 48.102540479608 37.995435465487 33.145110884808 48.097230287101 38.000246416874 33.135630953824 
48.069626515426 38.026552073382 33.095485238808 48.067441498517 38.028605626026 33.092105281378 48.067007649162 38.029023963207 33.091508745726 
48.036363696448 38.058793891665 33.050934536968 48.033421185943  38.06168884548 33.047294596203 48.004942571188 38.089789496535 33.012645580971 
48.000634764113 38.094043921879 33.007431103898 47.973196263383 38.121171992565 32.974425902878 47.968140843389 38.126217399147 32.968677079505 
47.940637823852 38.153745442453 32.937961540333 47.935450847425 38.159037438157 32.932874964787 47.906374544778  38.18878160836 32.904918939922 
47.901897735571 38.193500580198 32.901595741456 47.870175004383 38.226776416029 32.876900695763  47.86773973133 38.229412311848 32.875578070106 
47.843857499293 38.255007462496 32.860814919621 47.833146585275 38.266435560432 32.853834402139 47.832178833094 38.267456457935 32.853121638298 
47.798315379845 38.303959799093 32.833674794587 47.793326733226   38.3092867842 32.830453925252 47.763381131197 38.341828438669 32.815098990943 
47.753535865436 38.352433610275 32.809391611303 47.728295471232 38.380022118167 32.797575742615  47.71328971409 38.396294458331  32.78963984842 
47.693034984061 38.418542232608 32.780923686552 47.672910444275 38.440502322391 32.771244745164 47.657475036305 38.457569435556 32.765397304419 
 47.63260109879 38.484774907394  32.75387629943 47.621521454286  38.49706893451 32.749982691412  47.59195463183 38.529407545559 32.736290670176 
47.585163943484 38.536948053098 32.733943205186 47.550316415079 38.574965141876  32.71712077503  47.54856243644 38.576908653728 32.716485299893 
47.538608160923 38.587705752815   32.7112393522 47.512082440073 38.616392170319  32.69666007303 47.507269875299 38.621501758646 32.693346058012 
47.475876279761  38.65521668465 32.674430237569 47.462548528303 38.669296961775 32.664759316823 47.439562741854 38.693816439964 32.649741022399 
47.416942968667 38.717566722374 32.632294790409 47.402893505388 38.732462538621 32.622473927574 47.370515103751 38.766256611143 32.596074671392 
47.364828438067 38.772244007572 32.591804959507 47.332042449739  38.80627621492 32.563754685134 47.325470610895 38.813088645104 32.558067257934 
47.324488182441 38.814094661625 32.557129879262  47.28697231875 38.852792532064 32.523314790962 47.283987220507 38.855871344809  32.52062178976 
47.283881967592 38.855980782567 32.520533036292  47.24683497387 38.894105953523 32.486513463324 47.235705337408 38.905632454346 32.476807070502 
47.211414790614 38.930631406147 32.454511916719 47.187681381196 38.955214418995 32.433836809056 47.177563934094 38.965640045821 32.424642839011 
 47.15476680251 38.989303895838 32.405139887632 47.143923321097 39.000577548728 32.395989443104 47.138455156133 39.006301890695   32.3916514246 
47.110209213108 39.035766182573 32.368504337236 47.086851929669 39.060276894992 32.350391115886 47.076292788674  39.07131587191  32.34190976315 
47.057105547481 39.091483319386 32.327260622824 47.042230783622 39.107155773574  32.31617010909 47.033120307245 39.116804887904 32.309729975281 
47.008079077035  39.14322669776   32.2913248264 46.978104149542 39.175015083271 32.270426239645 46.973974853024 39.179382394531 32.267464164149 
 46.96736870686 39.186409207217 32.263006219202 46.939665752733 39.215963049852 32.244923112637 46.920378213626 39.236660861231 32.233189667319 
46.905141140781 39.252999878022 32.223834634487 46.885461326779 39.274246469538 32.212762627617 46.870382527208 39.290584069659 32.204689890198 
46.857717659338 39.304404592434 32.198602202057 46.834974500229 39.329291282364 32.188150670173 46.811778758079 39.354839377562 32.178661232924 
46.800322768897 39.367524797384 32.174450871845 46.790181053908 39.378838452527 32.171311895717 46.766893143325 39.404916062575 32.164798550448 
 46.74104704679 39.434083580792 32.159155990701 46.734554840939 39.441455042664 32.158055226934 46.724816957166 39.452605053314 32.157061137093 
46.701683593587 39.479136494696 32.155005335439 46.690072731946 39.492539151585 32.154580963947 46.667319077009 39.518950275219 32.154778181803 
46.640728542519 39.549919856177 32.155746826138 46.630883252279 39.561462664431 32.156641705034 46.600230233417 39.597581355145 32.160698891383 
46.592876978905 39.606255715607 32.161742315306  46.59057545723 39.608986853377 32.162182399407 46.554299072594  39.65244675131 32.172019694088 
[...]
CELL_DATA 1
FIELD FieldData 6
ClosedSection 1 1 int
1 
SectionArea 1 1 double
        26.2329 
SectionLength 1 1 double
        18.5391 
SectionMinSize 1 1 double
        2.55212 
SectionMaxSize 1 1 double
        3.27519 
SectionShapeFactor 1 1 double
       0.779229 
