# vtk DataFile Version 4.2
vtk output
ASCII
DATASET POLYDATA
POINTS 359 double
44.868864433183 37.003721993568 43.547237520775 44.811936301772 37.010646433349 43.526556457023 44.802680085175 37.012076703679 43.523370369197 
44.755250944049 37.016792355993 43.505529182895 44.739909859197 37.018566851957 43.499902939529 44.736692368408 37.018663264885 43.498563011516 
 44.68158496755 37.021700245099 43.476417144474 44.664067913156 37.021560683905 43.468736762165   44.6274524977 37.021611773637   43.4528814981 
44.592467213887 37.020454359682 43.437032513884   44.5762932441 37.020542281547 43.430066741239 44.549440388145 37.019833174484 43.418005868908 
44.525342706228 37.020121891951 43.407719005425 44.510850752423 37.019864661043 43.401282757581  44.47307898404 37.020781633238 43.385428036183 
44.428641078557 37.020881898764 43.366207656395 44.418447444856 37.021243102767 43.361994839084 44.396742484292 37.021935619531   43.3529802119 
44.362638787697  37.02402577632 43.339397249823 44.346984668753 37.024722321772 43.333010000816 44.303487992762 37.028067712267 43.316080099294 
44.261490718034  37.03023608823 43.299118026186 44.239575158421 37.032071490154 43.290674897974 44.169306750584 37.034433782087 43.261560405602 
44.165705295291 37.034708966471 43.260157587824    44.161191148 37.034665067111 43.258173750367 44.093755244398 37.034918822403 43.229065152943 
44.051291011305 37.031265068299 43.208523714735 44.032990261105 37.030044574533 43.199876409658  44.00919186622 37.025561454707 43.186951762504 
43.975833819967 37.020537769329 43.169566320711 43.952158512055 37.014212916608 43.155626883617 43.923228927952 37.007835576522 43.139377537374 
 43.89153476944 36.998254831201 43.120070886724 43.873756959828 36.993380590204 43.109531308171 43.857450166567 36.987819106246 43.099231306981 
43.824206523873 36.978362410959 43.079324390267 43.775008659667 36.962976832172 43.049057340354 43.772733372623 36.962363246439 43.047714376391 
43.769591691581 36.961383619541 43.045783243358 43.722805877845 36.947996773019 43.017721862389 43.679807548813 36.932027321128 42.989805720636 
43.677472471602 36.931273870874 42.988355697666 43.676157421595 36.930803513383 42.987512385242 43.629896230719 36.914552192123 42.958017231713 
43.621089924944 36.911745374038 42.952568855097 43.577193141647 36.896799166714 42.924856409034 43.570125131385 36.894647463117 42.920542119217 
43.517636273221  36.87688058951 42.887466204676  43.51649591503 36.876532960687 42.886769860492 43.507111875723 36.873217838446 42.880776033331 
43.459147565183 36.856784398712 42.850436386893 43.454508783506 36.854908717727 42.847336061987 43.400077946009 36.831674948819 42.810246905827 
43.396932506778 36.830130909844 42.807986788342 43.376285051281 36.819029629018   42.7925906407 43.344130987227 36.802546199717 42.769080972927 
43.338079803284 36.799262169061 42.764551073982  43.29454176084 36.773752924735 42.730867792313 43.278981850945  36.76436669686 42.718673494352 
43.248331660388 36.744835587711 42.694048625776 43.222773010954 36.727605064037 42.672966943969 43.203667042396 36.713953231621 42.656760243406 
43.166958488765 36.684741225835 42.623892235417 43.159908698912 36.678767833153 42.617369304159 43.131836155069 36.651081781265  42.58913290319 
43.115609483689 36.636129584268 42.573421130471 43.112186734436 36.632621903119 42.569901812183 43.101938949634 36.619098348978 42.557612464998 
43.075081500286 36.585533331551 42.526493461225 43.067034485851 36.572545325913 42.515469489466 43.046070951197 36.541266822961 42.488233605789 
43.028776017934 36.508479813742 42.461714354106 43.022626834347 36.497845150246 42.452878637576 43.012375982998 36.474639549928 42.434972458506 
43.002966696715 36.454324706435   42.4191079898 42.999353901828 36.443432545028 42.411223290335 42.986539711259 36.410301593296 42.386448439294 
42.977083512305  36.37451497836  42.36159012723 42.973542015838 36.363063774929 42.353412119766 42.969176411743 36.341805589537 42.339188625838 
42.962425536803 36.311464869317 42.318662537686 42.960293413884 36.294635301271 42.307976555787 42.953667272113 36.255886922804  42.28262821298 
42.950360997713 36.201151431389 42.249447746223 42.949608058677 36.193872158691    42.244899184 42.949584733242 36.177411783108 42.235342191818 
42.948460796399 36.131140242789 42.208017507453 42.950087904246 36.112543138115 42.197937240035 42.953423219779 36.070776281429 42.175159793618 
 42.96303778701 36.028104587982 42.154581682751 42.966302307376 36.014431294754 42.148067542627 42.973759722296  35.99583766892 42.140518659795 
42.986122048466 35.961187579016 42.125785070857 43.001690977746 35.931930814614 42.115570686468 43.011943752764 35.912729181831 42.108881878319 
43.029898452395 35.889097834954 42.102965207263 43.045349466553 35.867165422194 42.096947727116 43.055230569195 35.855841295394 42.094666560138 
43.085061547786 35.823898504281 42.089081620436 43.123387821932 35.787277196071 42.084468703042  43.12722371368 35.783783116638 42.084106295796 
43.131705009484 35.780194900891 42.083969286487 43.170625885882 35.746620667431 42.081381602397 43.212448831853 35.714751102002 42.081041617972 
43.216068974283 35.712045942304 42.081043178522 43.218815196914 35.710252246839 42.081194246959 43.262840235924  35.67879003856  42.08204586192 
 43.29490632802 35.659158839751 42.084571198462 43.311672487313 35.647812669399 42.085264196182  43.35392490159 35.623500794154 42.089493922099 
43.362138036408 35.618770661023 42.090313597536 43.365085385134 35.617358676148 42.090773309453 43.413849329956 35.591182684993 42.096746767183 
43.430439155397 35.583647996791 42.099573891926 43.466298654369 35.565186116703  42.10442311984  43.49298013101 35.553355399697 42.109136655008 
43.517927177347 35.540804778839 42.112680202962 43.552756959954 35.525130442032 42.118699458738  43.56811568016 35.517261473851 42.120798612646 
43.613938011205  35.49555603103  42.12808878633 43.616947105807   35.4939250103 42.128448246643 43.624468636634 35.490238024217 42.129572899058 
43.664835542868 35.470217308069 42.135473467966   43.6799982354 35.463354038222 42.138070875204 43.714309260863 35.446078260524 42.142936256529 
43.745151484969 35.431851371489   42.1480650935 43.765807231869 35.421376926331  42.15095110713 43.805740475577 35.402796991509 42.157499180351 
43.815459097779  35.39780529974 42.158820280907 43.863000910171 35.375106602678 42.166280339877 43.863688966138 35.374742838652 42.166367859829 
43.865381877308 35.373870722454 42.166596477153 43.909642973075 35.350809474713 42.172422983944 43.929906660054 35.341114901256 42.175591228617 
43.956614197689 35.326667869424 42.178798630287 44.003698699734 35.303415747224 42.185739312229 44.007514661479 35.301302370614 42.186169054212 
44.016489210211 35.296722279176 42.187406077333 44.057710543275 35.275068551911 42.192730190865 44.075829024443 35.266393401547 42.195559035562 
44.104701319045 35.250885804177 42.199090456845 44.140117701183  35.23297772007 42.204068643813   44.1502352114 35.227279461754 42.205152991907 
44.192778788672 35.203377538273 42.209746801717 44.197087907103 35.200779952529 42.210109653236 44.243625470456 35.173044401137 42.214212706867 
44.245150133389 35.172072738467 42.214310596843 44.280649989139  35.14965833634 42.216711372467 44.294251527067 35.141026361629 42.217605669479 
44.294837068906 35.140660727164 42.217647630804 44.342714981224 35.108135911328  42.21955443792 44.345015550286 35.106600315794 42.219661863792 
44.389693934179 35.075116730725 42.220784521548 44.393773555995  35.07231047801 42.220926785356 44.435583806066 35.042374590714 42.221702809348 
44.443529739366  35.03679687615 42.221914974766 44.479513023945 35.009970692811  42.22196668246 44.502738773086 34.993174244025 42.222300935833 
 44.52524587847 34.976039989344 42.222127494952 44.570393153806 34.943095807084 42.222606438758 44.576548657384 34.938451586219 42.222583278708 
44.597675841433 34.923160034413 42.222879936866 44.630715174684 34.898735784546 42.223047568008 44.640795929599 34.891652464551 42.223312646943 
 44.68471764816 34.859535827484 42.223739875374  44.70959080737 34.842195594579 42.224473436005 44.737664525612 34.822178157572 42.225042742976 
44.773291229005 34.797884383597 42.226408529894 44.790858432913 34.785939802213 42.227101972325 44.835214201882 34.757233864628 42.229695680866 
44.845313897009   34.7508011399 42.230346316174 44.896706457597 34.719789797779 42.234655687453 44.901850855085 34.716783490766 42.235143854031 
44.957715476338 34.685251575159 42.241091415012   44.9599563376 34.684034395873  42.24135761642 45.017553659128 34.653149537571 42.248432163717 
45.018685051262  34.65256995749  42.24858684515 45.076301535815 34.624081104002 42.257059367652 45.077256772686 34.623625904263 42.257209767005 
45.132646996417 34.598680558921 42.266771672473 45.133481694489 34.598313051292 42.266920639032 45.159374990147  34.58761431611 42.271948776489 
45.186916445574 34.576214655446 42.277285405839  45.18792982881 34.575824604235 42.277498816451 45.236934756295 34.557517470201 42.288140687725 
45.253240024816 34.551943523403 42.291981575655  45.28958348004 34.540254923117 42.300969201347 45.330656935284 34.528388169636 42.311905519534 
45.351379321979 34.522833041794 42.317673604286 45.415909434839 34.507656417956 42.336866447786 45.423926537511  34.50598155011 42.339373105399 
45.435116823955 34.504288556787 42.343245875308 45.489955966871 34.495443778828 42.361906892238  45.52878188356 34.491551442214 42.376493250496 
45.546801217093 34.489836964743 42.383316210876 45.597577634811 34.488212642202 42.404402492968 45.604962227117 34.488275540116 42.407642636929 
45.660271156269  34.49209561846 42.433852966737 45.664088518491  34.49248983023  42.43573769547 45.722529344981 34.501564276448 42.466354225961 
45.724809458433 34.501999235784 42.467595682031 45.782924063848 34.516279088719 42.501089777825 45.785436564197 34.516962828922 42.502576341204 
45.841572619975 34.535708312645 42.537802107722 45.845381566724 34.537065022929 42.540241426226 45.897849362774 34.559282299701 42.575889398019 
 45.90408053583 34.562026326704 42.580184184425 45.952968713544 34.587140271584 42.615959249461 45.962881197097 34.592337393918 42.623273875503 
46.006516003448 34.618126407019 42.657161399764  46.02284733609  34.62777141792 42.669840456562 46.057770528188 34.651108800403 42.698526689911 
46.091925033674 34.674610714696 42.726974870319  46.10199789343 34.682149184622 42.735717033486 46.117716197937 34.694229354756 42.749542510699 
46.144325506077 34.713903942375 42.772497536197 46.160259172468 34.726142661489 42.786508401044 46.185033024772 34.747040253228 42.809376480855 
46.217356744972 34.774952404508   42.8395883088 46.226003567359 34.783076919893 42.848051714214 46.264744004031 34.819363629868 42.885904481817 
46.267785613735 34.822597976936 42.889099918662 46.303860740468  34.86091703123 42.926975134481 46.307862354629 34.865559471058 42.931403732247 
 46.33833668065 34.901862925568 42.965680117982 46.342178423451 34.906420837558 42.969990333224 46.342853572059 34.907254356006 42.970766666858 
46.371752920635 34.945345280274 43.005396495558 46.396707890754 34.981450373815 43.037163366989 46.400407993752 34.986901542874 43.041930215753 
46.403196588071 34.991298669828 43.045690288822 46.428635948471 35.030182742729 43.079279087243 46.446861841604 35.060051790668 43.104509826162 
46.453725771247  35.07103494927  43.11385774565 46.463045766294 35.087158373316 43.127252490697 46.476850550386 35.111224849067 43.147199775489 
46.486684496271 35.129932294637 43.162316197977 46.498954275343 35.152662033151 43.180822254458 46.511452478139  35.17755695929 43.200683197947 
46.520225185748 35.195261450903 43.214757518102 46.526906066278 35.209789765841 43.226082184701 46.541007405677 35.239245172472 43.249283656781 
46.557453960986 35.275405948016 43.277391610722  46.56084778074 35.282990881833 43.283263149146 46.564628312085 35.291961442447 43.290106106316 
46.579939225208 35.326579779816 43.316826783119 46.589122566139 35.348002942307 43.333236045027 46.598471163285 35.370730762444 43.350473690121 
46.615192826466 35.411130298187 43.381159437925 46.616559254927 35.414584300426 43.383755527585 46.620541637738 35.424537073428 43.391255728679 
 46.63433348712 35.457855549474 43.416563480694 46.638934382458 35.468840487675  43.42493065831  46.65109827025 35.499193062738 43.447811953963 
46.660284274772 35.521433086643 43.464696143846 46.667479263117 35.539938486299 43.478550520374 46.679565256399 35.570147283752 43.501314633241 
46.683552376498 35.581036680086   43.5093601228 46.697662372212 35.617882879023 43.536851944711 46.699338332827 35.622777181582 43.540417680463 
46.712713954364 35.659086881495 43.567279743514 46.714946726343 35.665038342062  43.57170018353 46.715262076185   35.6658337871 43.572298343128 
46.729997660013 35.707745459402 43.602999494389 46.732537277021  35.71465036718 43.608106044222 46.744080163155 35.751070032299 43.634236789024 
46.748578564439 35.764810277559 43.644157555392 46.756874207125 35.795063713033 43.665303187016 46.762759027551 35.816496814066 43.680287213341 
46.767796850528 35.840066010663 43.696142702685 46.773928691095 35.869458458269 43.715850244883 46.776478079768 35.886382520879 43.726772055541 
46.781821379137 35.923450760808 43.750589396221 46.782800871361  35.93414125702 43.757214723798 46.786595451595 35.978251874343 43.784444699263 
 46.78675203991 35.983460611421 43.787533653738 46.788041098942 36.033600246021 43.817173433818 46.788008458668 36.034556735903  43.81771402917 
 46.78676472675 36.059221309509 43.831479695432 46.785411692034 36.087831705078 43.847486484764 46.785321875359 36.089050835131 43.848154604218 
46.778696346333 36.133647418898 43.871145871411 46.777208624268 36.143805391572 43.876391986431 46.777145954034 36.144079765857 43.876523932822 
46.763660908345 36.197191103918 43.901477812796 46.761443627645 36.203707872583 43.904295556535 46.744940213152 36.248823682013 43.923302638903 
46.736551212159 36.267179876111 43.930309662669  46.72145359444  36.29853837667 43.941947505002 46.700498880312 36.334921241966 43.953958445708 
46.693670659812  36.34633128945 43.957613880285 46.679345723808 36.366960135839 43.963363830823 46.662472032745 36.392514639068  43.97086489046 
 46.65224698477 36.406135205686 43.974328758225 46.628489516771 36.437341035054 43.982121142676    46.592786932 36.479198155866 43.990909022582 
46.591708139174 36.480456371983 43.991170763276 46.590157010935 36.482067864182 43.991432487327 46.553078808592 36.522301855856  43.99868218133 
 46.52159668688  36.55270561797 44.002658180993 46.511856790958 36.562069961037  44.00386395049 46.500502410408 36.571617751926 44.004475704921 
46.468200227904 36.599616732964 44.006701185091 46.431580124979 36.626913051474 44.006645880231  46.42143487088 36.634417217629 44.006596906631 
46.412842514248 36.639932334164 44.006067996544 46.372125783213 36.667345493102 44.004303214578 46.321369390865  36.69779312077 43.999942883269 
46.318736151959 36.699462325874  43.99976862734 46.315451845403 36.701303261614 43.999411520457 46.263248164579  36.73071644832 43.993823344154 
46.228351762206   36.7479284084 43.988666994629 46.203423559543 36.760902300448 43.985377115203 46.151368503664 36.784515749624 43.976489620286 
46.142990692289 36.788420872574 43.975120004443 46.138701623985 36.790122921058 43.974246447563  46.08387342631 36.813466066032 43.963999104214 
46.047138834623 36.826464227852 43.955601325628 46.025203597458 36.834852097218 43.950950034104 45.983460529091 36.848116507954 43.940533846007 
45.967047816877 36.853582701621 43.936583849825  45.95666595954 36.856400934759 43.933714430561 45.909487149091 36.870734282685 43.921560024185 
45.874909522756 36.879111103642 43.911417666639 45.848163283272 36.885344004275 43.903429351151 45.801129845498 36.894466698332 43.888315878561 
 45.78670810084 36.897162700669 43.883622938887 45.729108401993 36.905487016932 43.863462444517 45.726561151415 36.905833283913 43.862558200513 
 45.71492216663 36.907018251205 43.858196120812 45.668834485633 36.912306948919 43.841269262542 45.658599666614 36.913169850357 43.837329557865 
45.612367576722  36.91720003183 43.819610122228 45.588341402549 36.918895555372 43.810170216144  45.55705822629 36.921124792607 43.797891548146 
45.520195818256 36.923451973472 43.783249243904 45.502445992186 36.924646413056 43.776241586771 45.453927279186 36.927578902725  43.75689349198 
45.448440615237 36.927959533025  43.75473397029 45.422791676934  36.92962809722 43.744574422931 45.395104315097 36.931777481542 43.733809416061 
45.389290062314 36.932193803618 43.731528477155 45.342703330723 36.936082505588 43.713573130154 45.325848750722 36.937395869208  43.70702283325 
45.292977854811 36.940523123179 43.694576205336 45.262715791201 36.943423607582 43.683129844921 45.245231246104 36.945488152103 43.676741928051 
45.215453132103 36.949274126165 43.666019096097 45.196798048531 36.952010758844 43.659513168776 45.177885094323 36.954650196845 43.652838997168 
45.141296813528 36.960930313471 43.640608285702 45.119412590818 36.964286777123 43.633060954812  45.07201307508 36.972006273991 43.616974824307 
45.043043586437 36.976551265651 43.607043022476 45.004232066407 36.983398801422 43.594176899421 44.965937467124 36.989185476435 43.580919742619 
44.936452332425 36.994151539967 43.571008455615 44.888774621256  37.00060932329 43.554069852612 
POLYGONS 1 360
359 0 1 2 3 4 5 6 7 8 9 10 11 12 13 14 15 16 17 18 19 20 21 22 23 24 25 26 27 28 29 30 31 32 33 34 35 36 37 38 39 40 41 42 43 44 45 46 47 48 49 50 51 52 53 54 55 56 57 58 59 60 61 62 63 64 65 66 67 68 69 70 71 72 73 74 75 76 77 78 79 80 81 82 83 84 85 86 87 88 89 90 91 92 93 94 95 96 97 98 99 100 101 102 103 104 105 106 107 108 109 110 111 112 113 114 115 116 117 118 119 120 121 122 123 124 125 126 127 128 129 130 131 132 133 134 135 136 137 138 139 140 141 142 143 144 145 146 147 148 149 150 151 152 153 154 155 156 157 158 159 160 161 162 163 164 165 166 167 168 169 170 171 172 173 174 175 176 177 178 179 180 181 182 183 184 185 186 187 188 189 190 191 192 193 194 195 196 197 198 199 200 201 202 203 204 205 206 207 208 209 210 211 212 213 214 215 216 217 218 219 220 221 222 223 224 225 226 227 228 229 230 231 232 233 234 235 236 237 238 239 240 241 242 243 244 245 246 247 248 249 250 251 252 253 254 255 256 257 258 259 260 261 262 263 264 265 266 267 268 269 270 271 272 273 274 275 276 277 278 279 280 281 282 283 284 285 286 287 288 289 290 291 292 293 294 295 296 297 298 299 300 301 302 303 304 305 306 307 308 309 310 311 312 313 314 315 316 317 318 319 320 321 322 323 324 325 326 327 328 329 330 331 332 333 334 335 336 337 338 339 340 341 342 343 344 345 346 347 348 349 350 351 352 353 354 355 356 357 358 

CELL_DATA 1
FIELD FieldData 6
ClosedSection 1 1 int
1 
SectionArea 1 1 double
        8.51273 
SectionLength 1 1 double
        11.0577 
SectionMinSize 1 1 double
        1.15787 
SectionMaxSize 1 1 double
        2.12154 
SectionShapeFactor 1 1 double
        0.54577 
