# vtk DataFile Version 4.2
vtk output
ASCII
DATASET POLYDATA
POINTS 513 double
27.976758165576 31.049480950717 24.748454295978 27.966015125533  31.00131208592 24.745732389127  27.96024955459 30.973453544574 24.744486488126 
27.954960295187 30.949004801074  24.74322486364 27.947900699202 30.913493888901 24.741849188221 27.944677616528 30.896837725165 24.741268601673 
27.942610830449 30.885128180766 24.741006448218 27.935019355805  30.84396015477 24.739846331796 27.926646323866 30.794201530585 24.739032712016 
27.925945786385  30.79025287973 24.738941681717  27.92505301347 30.784592216242  24.73889295136 27.917892368796 30.737063119089 24.738729778753 
27.913504776673 30.703577296485 24.739096877006 27.910777866646 30.683862973524 24.739207560855 27.907191188502 30.653565629348 24.739820683012 
27.904589883375 30.630475996226  24.74038482629 27.903230975924 30.615788949019 24.740960567562 27.899290419874 30.576933030274 24.742230405705 
27.895692501679 30.532723134211 24.744324695514 27.894855704147 30.523575748668 24.744690287542 27.893577679992 30.505918652216 24.745643305437 
27.891125756413  30.47035819908 24.747652066713   27.8902110257 30.451988569975 24.748947793777 27.888111548791 30.417443614656 24.751106314898 
27.886147630352 30.370249920505 24.754718363704 27.885857889485 30.364764757299 24.755093091317  27.88551222904 30.354645235202 24.755922941272 
27.884136311333 30.312048353386  24.75947410015  27.88384482227 30.289294687316  24.76169622841 27.883078305072 30.259087808844 24.764367889848 
27.882790440771 30.210880763166 24.769317592599 27.882698785575 30.205986187266 24.769774365056 27.882711299888 30.195228565408 24.770935201859 
27.882812605059 30.152725120169 24.775559710208 27.883274571683 30.132827252573 24.778028672953 27.883608299919 30.099155931755 24.781878108935 
27.885055012158 30.052500924112 24.787933746011  27.88518590348 30.045070841754 24.788825166726 27.885791588433 30.029182046544 24.790970336341 
  27.8873404694  29.99011550895  24.79628851595 27.888443978564 29.971462748717 24.799094672158 27.890058639813 29.933915798527 24.804298413407 
27.892602575378   29.8919845888 24.810653015146 27.893275337579 29.876516977228 24.812802287375 27.895958863351  29.83172033729 24.819566019671 
27.896774231892 29.818289953155 24.821601779492 27.897134885357 29.813621028212 24.822366104877 27.900314192128 29.759692477353 24.830471046941 
27.902115654186 29.735779828785  24.83435215983 27.904062022213 29.701109068358 24.839491254174 27.907197391936 29.658185968264 24.846385783545 
27.908013013084 29.643004171228 24.848609226449 27.911162459673 29.597972097732 24.855739855917 27.912060998118 29.585195113791 24.857766660253 
27.912441683771 29.580773920212 24.858519155736 27.915983279565  29.52749226017  24.86682053703 27.918067849735 29.502716598346 24.871001663225 
27.920166877873 29.470098465156 24.876032969675 27.924070840973 29.423327603875 24.883903085875 27.924728465136 29.412939996007 24.885497415585 
27.926841362748 29.387936481376 24.889723709127  27.92957955427 29.355761140495 24.895176356222 27.931077520779 29.342009931337 24.897747059544 
27.934910855089 29.298453728842 24.905221232759 27.939501131644 29.258616745491 24.912852363742 27.941187116714 29.240784458921   24.9159978549 
27.945928106484 29.202962832569 24.923523760165 27.948481543658 29.182642194489 24.927571806419 27.950084150389  29.17265751187 24.929816023654 
27.956923862114 29.124181693084 24.940021657141 27.964390402728 29.082765249957 24.949931245976 27.967215869368 29.065305461633 24.953872521946 
27.973305245053 29.036121548045 24.961462582352 27.979512979953 29.006275672397 24.969210310436 27.984503262717 28.987304685256 24.974900981322 
27.994336745963  28.94734938752 24.986389993931 28.010964440408 28.893456710499 25.004353752325 28.012431624389 28.888675975293 25.005941544911 
28.013833532451 28.884972747278 25.007366113305 28.033469027605 28.830782766936 25.027567533216 28.056919108658 28.776925618069 25.050530828267 
 28.05820308089 28.773846596743 25.051802081389  28.05973370761 28.770729503215 25.053258299573 28.085742773104 28.717693080328 25.078010416499 
28.113195000673 28.669672276757 25.103283958522 28.116358645009 28.663899626238  25.10622207552 28.120281882119 28.657757466549 25.109756813662 
28.148948358877 28.612418886311 25.135633704856 28.175204321633 28.575492156992 25.158842262879 28.182626287241 28.564647645655 25.165446277967 
28.191432775574  28.55294047417 25.173158014037 28.215785684587 28.520332603789 25.194508571502 28.240270286089  28.49020164795 25.215690541874 
28.247516461207 28.480869402657 25.222003741407 28.254354150993 28.472720300084 25.227890708106  28.27752060496  28.44504587476  25.24784300305 
 28.30428838919 28.415378520373 25.270649762364 28.306973423254 28.412415744745 25.272936068824 28.315352444003 28.403725449918 25.280011340307 
28.337823216835 28.379795294817 25.299052599386 28.344283114031  28.37346462225 25.304467831619 28.371102761024 28.347714996435 25.326893212431 
 28.38732253394 28.333345077491 25.340326696954 28.406744307226 28.316442688323 25.356379549584 28.434564064951 28.294900550943 25.379087949109 
28.444538729499 28.287335789078  25.38721292526 28.472810423448 28.268720333588 25.409939445219 28.485976133148 28.259760169508 25.420554026214 
28.491186785671 28.256730414782 25.424699718336 28.530758494294 28.233351240868 25.456223321507  28.55418483746 28.222427835879 25.474572928102 
28.589639036166 28.206342149389 25.502296063498 28.610727558111 28.198324407376 25.518620113649 28.651715467536 28.183299683711 25.550287930149 
 28.66561549191 28.179151342503 25.560925905618  28.71628414974 28.165000674063 25.599599729606 28.719843603006 28.164200484554 25.602295793654 
28.734723023292 28.160958493688 25.613555000129 28.774850201502 28.151476858642    25.643998165 28.784205500732 28.149202560434 25.651102545069 
28.832070926085 28.139996929352 25.687191167923 28.857112693419 28.134746268871 25.706118182973 28.892062149534 28.129325120436 25.732329460751 
28.930046268183 28.122289095189 25.760939152797 28.958146074558  28.11927338214 25.781869582132 28.994203259758 28.113723853336 25.808906980021 
29.022916763948  28.11064312534  25.83029443769 29.054994919985  28.10593204597 25.854323970836 29.083251273464 28.102630010043 25.875399859616 
29.113521578571 28.097981861428 25.898096830349 29.140320904723 28.094693035087 25.918102763463 29.170549048969 28.090067765288 25.940766365349 
29.192617434744 28.087433138372 25.957232728798  29.22687403295 28.082926403869 25.982837991964 29.236914755093  28.08176699842 25.990325686237 
29.251139046866  28.08011549715  26.00093417034 29.278727551852 28.076459520421 26.021558169635 29.322690183896 28.070989498421 26.054384680952 
29.323624500509 28.070866496315 26.055083049624 29.324099262535 28.070811882584 26.055437072984 29.370543315025 28.064656838541 26.090156721123 
29.391901283593 28.062120201693 26.106091594888  29.41689394583 28.058695062858 26.124787166134 29.456530671873 28.053794870789  26.15438018042 
29.462603496518 28.052929245179 26.158926483291 29.509564752613 28.046301670903 26.194076020339 29.511615524489 28.046003976163 26.195611866617 
 29.51180527212 28.045974841398 26.195754141045 29.512710035315 28.045847535543 26.196431296838  29.55888185144     28.03889182 26.231037010769 
29.573273996349 28.037199227494 26.241772992516 29.606383016158 28.032746350178 26.266530889335 29.647586176662 28.028504799421 26.297202170181 
29.655405402036 28.027602220496 26.303033188653 29.672801986955 28.026339879724 26.315926478738 29.704732982364 28.023669145219 26.339629659063 
29.717535309418 28.023170424436 26.349071904428 29.755763055844 28.021336792397 26.377303322855  29.78715392655 28.021368053072 26.400321128828 
29.809554618028 28.021237110407 26.416763163251 29.857791701029 28.023926187507 26.451850958874 29.866446939649 28.024436652332 26.458143811516 
29.901750757009 28.028825376104 26.483564769877  29.92388544261 28.031385539906 26.499523626425 29.929651823217 28.032445936941 26.503639001436 
29.977439803466 28.041061197871 26.537763009457 30.011442839899 28.050047150677 26.561737855685 30.021079819557 28.052494439002 26.568543341689 
 30.02801219022 28.054662346025 26.573395255249 30.061837706823 28.065246937524 26.597068771034 30.075446070946 28.069902200702 26.606550379876 
30.109031537824  28.08253355652  26.62982873344 30.118291344624  28.08625265866 26.636221457568  30.15468511204 28.102944924819 26.661124595661 
30.162042393003  28.10626011282 26.666165303715 30.164086130732 28.107305202817  26.66755223929 30.206769786701 28.129813621951 26.696445549593 
30.225271418914 28.141025084229 26.708813863999  30.25151129704 28.157308464684 26.726314208018 30.290305194063  28.18417617122 26.751888197809 
30.296118569919 28.188261601461 26.755714192289  30.30642443581  28.19615722985 26.762426946985  30.34022850183 28.221702115654 26.784483154501 
 30.36088041182  28.23854731912 26.797825298968 30.385387220452 28.258617093614 26.813649307065 30.424820651393 28.292808439163 26.838908278943 
 30.43263770828 28.299530661009 26.843921432672 30.438173767713 28.304501614105 26.847449251533 30.480372212804 28.342480734896 26.874330503488 
30.511753246006 28.371645936932 26.894222155517  30.52943690102 28.388113754538 26.905427869132 30.570326343893 28.426781153304 26.931275453166 
30.576217525709 28.432376221056 26.934996893758 30.609532951386 28.464221833426 26.956020221212 30.620841049511 28.475038640153 26.963155256631 
30.622654474548 28.476787400517 26.964297956009 30.662482759069 28.515469012189 26.989365795772 30.671067319514 28.523872746127  26.99476179973 
 30.70235277483 28.554790576242 27.014395729795  30.71788352337 28.570290559201 27.024126176064 30.740690530346 28.593354548774 27.038383052769 
30.764280663604 28.617516206818 27.053096740438 30.778064086952 28.631841171792  27.06167154094 30.811508425081 28.666999620282 27.082434752766 
30.815060389883 28.670795211132 27.084633322888 30.826854589213 28.683529482283 27.091919576305 30.851758928828 28.710484105897 27.107298063297 
30.859582785935 28.719024948168  27.11212151137 30.888111068607  28.75097480697 27.129622927102 30.906785878913 28.772101866113  27.14105672926 
30.924100471822 28.792361474709 27.151585852574 30.951400731431 28.824875756472 27.168126247465 30.959646137126 28.835060206796 27.173082890265 
30.992581976364 28.876829977944 27.192765407425 30.994687559471 28.879603994403 27.194012608065 31.015151072434 28.907467703103 27.206036999539 
31.029820143082 28.927465432098 27.214654009254 31.031204493705 28.929423432455 27.215459637697 31.065186234383 28.978936194375 27.235080261298 
31.068419887062 28.983803900791 27.236930615029 31.101862388596 29.035588597055 27.255912553962 31.106257202485 29.042608587144 27.258384056469 
31.139163674608 29.096608384743 27.276735748928 31.145372950362 29.107055432588 27.280171040758 31.174525706032 29.158200113999  27.29607552161 
31.189466763776 29.185369048567 27.304124284039 31.206894776721 29.217719764474 27.313442170614 31.236360135538 29.275168900617 27.328900980981 
31.236703124096 29.275838180185 27.329080868978 31.237299390028 29.277074410243 27.329385808256 31.264530356715 29.332436955514 27.343429360716 
31.278838619767 29.363259288911 27.350622934625 31.290284090737 29.387780670079 27.356391569582 31.311279372255 29.435685933018  27.36666039242 
31.314552013052  29.44300469516 27.368276940687 31.316166433685 29.446828400147 27.369051562442  31.33810421055 29.497808021706 27.379682457964 
31.350252625109 29.527697519893  27.38539192658 31.360389995935 29.552180809033 27.390205316844 31.381540173785 29.606331715638 27.399919107632 
31.381566355591 29.606397502794 27.399931265751 31.381623463047 29.606549530071 27.399956871393 31.402310971508 29.660437614304 27.409359490389 
31.410578266764  29.68336062107 27.412968457875 31.421982596343 29.714270760704 27.418022971229  31.43757882906 29.759713868956 27.424595874952 
31.440459374922 29.767877774555 27.425834395198 31.446951307185 29.787777101048 27.428465063686 31.458174082626 29.821229602008 27.433114257554 
31.462391672129 29.834811225822  27.43475333195 31.475058974344 29.874435120221 27.439801220137 31.485194419254  29.90879879996 27.443555450972 
31.490940482015 29.927616059485 27.445754961314 31.505191319435 29.978321085697 27.450777875628 31.505926551593 29.980849152239 27.451046430907 
31.506174653361 29.981771152147 27.451129676668 31.520777645636 30.033778108445 27.456271472758 31.525947865657 30.053737390467 27.457926417338 
31.534897534138 30.086530266137 27.460979196906 31.544349052614 30.124613995467 27.463833605377 31.548208963266 30.139230793553 27.465099547725 
31.558778085284  30.18397114326 27.468060948457 31.560761362735 30.191969421383 27.468659169398 31.561351475595  30.19465999454 27.468803901225 
 31.57312521719   30.2447071299 27.472080616052 31.577204885989 30.264723556784 27.472929664394 31.584547306544  30.29800187498 27.474751765891 
31.591554306175 30.335002906548 27.475929343667 31.595027880746 30.351812760722 27.476677180338 31.604425408259 30.405456970762 27.477826163306 
 31.60456282926  30.40616427778 27.477851222994 31.604943244477 30.408532913734 27.477876633708 31.613941745642 30.460659457002 27.478895456438 
31.616064184058 30.475936587615 27.478816495107 31.622296998728 30.515813451169 27.479118435408 31.625823811452 30.546182210523 27.478453764327 
31.629252571909 30.571953704855 27.478209345607 31.633161171588 30.616880107935 27.476266194783 31.634482474736 30.629699195293  27.47586285039 
31.637579069435 30.689187596839 27.471765261303  31.63760729843 30.689601856175 27.471741615019 31.637635538603 30.691568088555 27.471551830175 
 31.63913362134 30.752676509754 27.466108507358  31.63875984613 30.764846215132  27.46453156145 31.637965402833 30.819105914538 27.458140157803 
31.636318006295 30.841381573422 27.454547280319 31.632630484023  30.89063252952 27.446570388532 31.629743825246 30.912761217372 27.442084406137 
31.621858164662 30.969158796121 27.430263638686 31.619723055122 30.980193254318 27.427516515446 31.609801848546 31.029253777563 27.414988407518 
31.606841692406 31.045157239892 27.411114966946 31.606051511709 31.049025794127   27.4101213226 31.591860557431  31.10727616224 27.393478085237 
31.586768021403 31.127465934658 27.387581947497 31.575470303723 31.167055018833 27.375058312953 31.564043015958 31.205666414718 27.362544322072 
31.558092149355 31.223936415375 27.356224231142 31.545727788333  31.25930050681 27.343370658727 31.540584788663 31.275524501879 27.337862069437 
31.537621729922 31.283934600845 27.334788703562 31.523540710209 31.323003007745  27.32027961737 31.510715217732 31.357196230811 27.307213212071 
31.506596188163 31.367845092734 27.303052419599 31.493934675674  31.40050369817 27.290270561228  31.48910109843 31.413630939552 27.285320416886 
31.487718146399 31.417375502909 27.283905325132  31.47070950408 31.460160033212 27.266851375307 31.463823036359 31.477527672432 27.259941744166 
31.450980632666 31.508093035979 27.247251317834 31.436998761445 31.540914474114 27.233483714646 31.430460750158 31.555696719695 27.227106411118 
31.413238552366 31.594123072128 27.210362411441 31.409614768525  31.60275655348 27.206780574732 31.408056967623 31.606399356319 27.205248147886 
31.389296432926 31.649444326466 27.186881529653 31.378190133394 31.674029071323   27.1761045679  31.36875178716 31.694926421697 27.166945589325 
31.349204242679 31.736066701096 27.148205707997 31.348011521545  31.73879730748 27.147038675404 31.347326326661 31.740271945925 27.146378305695 
31.328378679458 31.781388356531  27.12808092688 31.315402451005 31.807763951099 27.115740893839 31.308283495307 31.822567365721 27.108935276303 
31.298978653915 31.840804740427 27.100158970481 31.288050957419 31.864081925925  27.08965297201 31.276392756163 31.886167738945  27.07873878517 
31.266560893932 31.906352037732 27.069367549264 31.256254154606 31.924394260229  27.05987737266 31.242435512686 31.950951597666 27.046900081542 
31.227248318326 31.975143302165 27.033172387088 31.215875048802 31.995017964801  27.02270387601  31.19804348659 32.019901467383  27.00696281843 
 31.18670045903 32.037727753789  26.99673577522 31.178898290147  32.04794026444 26.989920589044 31.155774987037 32.079842206642 26.969547362095 
31.133919140394 32.106093567832 26.950708574877 31.123521216386 32.119417825117 26.941656608703 31.092900439926 32.154643935932 26.915429083143 
31.092314935048 32.155370871936  26.91492186861  31.09210088644 32.155618461975 26.914738385782 31.063853004801 32.191261157312 26.890206474813 
31.055497950307 32.201202613229 26.883014836207 31.038179437538 32.224371344449 26.867833609345 31.027993408053 32.238059160035 26.858898119658 
31.009203227829 32.263790938929 26.842363227102 30.999227704876 32.276629833368 26.833672998198 30.976269455535 32.306264948787 26.813663492443 
30.967869818147 32.316347705224 26.806424031085 30.939819520517 32.349636993855 26.782288966872 30.933950996378 32.356202332666 26.777282308221 
30.900957205404 32.392532173775  26.74919632271 30.898827775015 32.394783175241 26.747393678956 30.883850208051 32.409866209781 26.734794849468 
30.861455214918 32.433467763322 26.715844343519 30.858028514358 32.436895923194 26.712964298603 30.822682319922 32.472024118684 26.683281771128 
30.807806540858 32.485411690067 26.670939098046 30.780848964917 32.510276856641 26.648507250097 30.746078293162 32.534643874178 26.620398834103 
30.735907702384 32.543387650553 26.612003951734 30.719170078975 32.555232287161 26.598461035266 30.692512732158 32.576300712815 26.576655827424 
30.676330617596 32.587268771102 26.563614147257 30.650900004784 32.607714757201 26.542775225875 30.612936671487 32.632923245948 26.512235320808 
30.609786166221 32.635307883282 26.509669543992 30.607504725344 32.636707296825 26.507846587062 30.569778177556 32.664081110085 26.477248524398 
30.537482830759 32.682593362695 26.451582222741 30.527482344464 32.689423946408 26.443516907248 30.511951816135 32.697719011467  26.43123923927 
30.485087894444  32.71459997782 26.409730824637 30.463312984781 32.724573873626 26.392693981273 30.438778770147   32.7381642662 26.373246379088 
30.416612709929 32.744660529817 26.356294975819  30.38897141604  32.75505023714 26.334911381919 30.347946744896 32.763909566531 26.303876642851 
30.339719110883 32.766341447319 26.297582389659 30.318190710383 32.770121097321 26.281389455067  30.29099332952 32.776404363776  26.26077102986 
30.278210865423 32.778440050815 26.251178811208 30.243425191641 32.787581905229 26.224689325778 30.213322655429 32.794207606439 26.201903684625 
30.191209793318 32.799837497165  26.18508404501 30.151502519311 32.810200493022 26.154854471441 30.137068263752 32.814168956238 26.143843963213 
30.099057748629 32.824391564298 26.114873772555 30.069434603655 32.829354704439 26.092617688786   30.0532019087 32.833803164254 26.080236871231 
30.038197435999 32.836535098909 26.068940559108 30.006418950622 32.845529768856 26.044672215149 29.963300876943  32.85360628127 26.012186040094 
 29.95968234442 32.854612078786 26.009424637633 29.952773050079 32.856065618213 26.004201952967  29.91562332167 32.868757851595 25.975598652089 
29.895832775249 32.875306521473 25.960383771262 29.874230047241 32.884943902538 25.943509226568  29.83959466029 32.898505400565 25.916656811382 
29.834784571025 32.901108448841 25.912850561852 29.829929268489 32.903331453188 25.909051839896 29.797098389394 32.922817494797 25.882888545252 
29.772919596213 32.933691745198 25.863992375929 29.756573266399  32.94309253947 25.850998048801 29.730618561736 32.953789675264 25.830818438629 
29.713563847988 32.962635836108 25.817363979688 29.699909685363 32.967722895093  25.80680581748 29.669574565895 32.981845723583 25.783047000196 
29.629269634658 32.995494287368 25.752027385104 29.624724464958 32.997422696764 25.748487643476 29.620655824488 32.998581680208 25.745379745575 
29.579801599368 33.012853323765 25.713890590389 29.534294335539  33.02215114007  25.67952150578 29.533851665388 33.022274128981 25.679183697752 
29.533371737143 33.022323809256 25.678826413789 29.487701974374 33.030418646622 25.644466942308 29.447307647022 33.029944932064 25.614893629786 
29.440193903817  33.03014475635 25.609655224966 29.429913771727 33.028877530808 25.602251737817 29.392029037925 33.027603039341 25.574604615612 
29.366814262377 33.024115264671 25.556486216133 29.342418947196 33.020906625722 25.538938902153 29.294446055568 33.011521458822 25.504761707923 
29.294136785093  33.01145820466 25.504541669628 29.291679854477 33.010907442454 25.502798790042 29.245991228611 33.001568846897 25.470291824254 
 29.24186256531 33.000659619707  25.46736132002 29.228293865884 32.997025362186 25.457799496169 29.198046777188 32.990029649594 25.436366087362 
29.183786903981 32.985884363512 25.426352084995 29.154346694063 32.979225070555 25.405474402177 29.118502223672 32.968678811798  25.38031614062 
29.108710939282 32.966416076634 25.373377734636 29.100244712157 32.963674031204 25.367462399802 29.061562770609 32.953313325831 25.340203354884 
29.024783457163 32.938791883602 25.314785070581 29.013412233199 32.935099493858 25.306841034747 29.002137775412 32.929887280243 25.299130669437 
28.966066150216 32.914815065637 25.274290346174  28.93679991459 32.897804656742 25.254648391651 28.921700106023 32.890125134606 25.244396763379 
28.904032631815 32.878593568045 25.232674465042 28.879313934171 32.863573640897 25.216154451371 28.861452770816 32.850975094195 25.204404332793 
28.839202521351 32.836325490404 25.189654962268  28.80525915448 32.809916160634 25.167589138761  28.80086509551 32.806676576771 25.164713477812 
  28.7985458054 32.804660652765 25.163228392939 28.763217167676 32.775537782154 25.140437150643 28.743848400926 32.757052439362 25.128211611564 
 28.72680186813 32.741601727339  25.11736425845 28.693566346319 32.707195512074  25.09667365598 28.691381597212 32.705047843241 25.095301343536 
28.685442594013 32.698470601554 25.091649978942 28.656492112183 32.667125368625  25.07377420628 28.646678116546 32.655240149125 25.067849281343 
28.622529113887 32.627376912109 25.053122008302 28.602333611733   32.6016266256 25.041067915371 28.589455588239 32.585869402406 25.033310439483 
 28.56012195243 32.546479249453 25.016014923204 28.557210500314 32.542706595346 25.014283630981 28.547459442799 32.528854153099 25.008615464424 
28.525547329622 32.498185375172 24.995829008836 28.519821473124 32.489454640218 24.992564502454 28.494412437246 32.451691895164 24.977972951296 
28.481797690975 32.431255335428 24.970909502501 28.463794420103 32.402787958539 24.960754006908 28.445920843518 32.372060792937  24.95093554743 
28.433524285736 32.351295721021 24.944067280665 28.411953215093 32.312194969059 24.932433622282 28.403516400936 32.297212469685 24.927850262092 
28.380169618722 32.252360527033 24.915530043199  28.37394723905 32.240572467245 24.912228703615 28.350539594283 32.193088569361 24.900145614341 
28.344784783219 32.181426722377 24.897173664253  28.32305678669 32.134990796478 24.886210189367 28.316213403865 32.120282458203 24.882766055058 
28.297442293747 32.078128697721 24.873512646761 28.288288493734  32.05745080214 24.869013191655 28.273285714419  32.02228190942 24.861775601397 
28.260974387321 31.993122525905 24.855868494898 28.250489059938 31.967265445216 24.850946994909 28.234293802863 31.926761909337 24.843405977303 
28.228836313833 31.912513998592 24.840928926085 28.208522375782 31.858532638945 24.831810258391 28.208253627026  31.85778517902  24.83169318532 
28.207208345468 31.854849253606 24.831240912223 28.188455663467 31.802733868653 24.823067462097 28.183878657599 31.789904685753 24.821084249481 
28.169330525455 31.747378111996 24.814967762136 28.160758720819 31.722310254906  24.81136509366 28.150718884628 31.691520571743 24.807298364626 
28.139148233765  31.65625389255 24.802588266211 28.132442812105 31.634649184792 24.799983600704 28.118748960416 31.591119248991 24.794601032932 
28.114432794061  31.57653655487 24.792996834901 28.099216389861 31.526189663968 24.787227461722 28.096603165251  31.51694053707  24.78630116568 
28.080337483735 31.460732635895 24.780389734526  28.07897712823 31.455705560736 24.779930263768 28.061770381125 31.394047957861  24.77391210126 
28.061470006114 31.392902555407 24.773814436222 28.056041872122 31.372724022526  24.77199381697 28.044183437457 31.328712238412 24.768008875078 
28.043499172922 31.326214177337 24.767774485732 28.027197907255 31.262137952646 24.762679303004 28.025420157837 31.255357086634 24.762101480076 
28.010525220085 31.193968769533 24.757749902946 28.007943659646 31.183832219019 24.756941831785 27.993685287727 31.123618158743 24.752931383264 
 27.99226750795 31.117890333774 24.752504818112 27.985792112138 31.089643842585 24.750779884215 27.978447538169 31.057484164203 24.748836447278 

POLYGONS 1 514
513 0 1 2 3 4 5 6 7 8 9 10 11 12 13 14 15 16 17 18 19 20 21 22 23 24 25 26 27 28 29 30 31 32 33 34 35 36 37 38 39 40 41 42 43 44 45 46 47 48 49 50 51 52 53 54 55 56 57 58 59 60 61 62 63 64 65 66 67 68 69 70 71 72 73 74 75 76 77 78 79 80 81 82 83 84 85 86 87 88 89 90 91 92 93 94 95 96 97 98 99 100 101 102 103 104 105 106 107 108 109 110 111 112 113 114 115 116 117 118 119 120 121 122 123 124 125 126 127 128 129 130 131 132 133 134 135 136 137 138 139 140 141 142 143 144 145 146 147 148 149 150 151 152 153 154 155 156 157 158 159 160 161 162 163 164 165 166 167 168 169 170 171 172 173 174 175 176 177 178 179 180 181 182 183 184 185 186 187 188 189 190 191 192 193 194 195 196 197 198 199 200 201 202 203 204 205 206 207 208 209 210 211 212 213 214 215 216 217 218 219 220 221 222 223 224 225 226 227 228 229 230 231 232 233 234 235 236 237 238 239 240 241 242 243 244 245 246 247 248 249 250 251 252 253 254 255 256 257 258 259 260 261 262 263 264 265 266 267 268 269 270 271 272 273 274 275 276 277 278 279 280 281 282 283 284 285 286 287 288 289 290 291 292 293 294 295 296 297 298 299 300 301 302 303 304 305 306 307 308 309 310 311 312 313 314 315 316 317 318 319 320 321 322 323 324 325 326 327 328 329 330 331 332 333 334 335 336 337 338 339 340 341 342 343 344 345 346 347 348 349 350 351 352 353 354 355 356 357 358 359 360 361 362 363 364 365 366 367 368 369 370 371 372 373 374 375 376 377 378 379 380 381 382 383 384 385 386 387 388 389 390 391 392 393 394 395 396 397 398 399 400 401 402 403 404 405 406 407 408 409 410 411 412 413 414 415 416 417 418 419 420 421 422 423 424 425 426 427 428 429 430 431 432 433 434 435 436 437 438 439 440 441 442 443 444 445 446 447 448 449 450 451 452 453 454 455 456 457 458 459 460 461 462 463 464 465 466 467 468 469 470 471 472 473 474 475 476 477 478 479 480 481 482 483 484 485 486 487 488 489 490 491 492 493 494 495 496 497 498 499 500 501 502 503 504 505 506 507 508 509 510 511 512 

CELL_DATA 1
FIELD FieldData 6
ClosedSection 1 1 int
1 
SectionArea 1 1 double
        18.2838 
SectionLength 1 1 double
        15.3679 
SectionMinSize 1 1 double
        2.20986 
SectionMaxSize 1 1 double
         2.6969 
SectionShapeFactor 1 1 double
       0.819408 
