# vtk DataFile Version 4.2
vtk output
ASCII
DATASET POLYDATA
POINTS 466 double
54.548758583077 27.820061874098 36.000898287389 54.553810158652 27.832120442865 35.976898448846  54.55992924237 27.846593976625 35.947547368794 
54.562112092319 27.851641954697 35.936835494408 54.570697831774 27.870970815864  35.89359904372 54.576688046664   27.8840577271 35.862596926095 
54.581051062672 27.893394299208 35.839606499854 54.590691717948 27.913245515062 35.787171787197 54.590945707702 27.913762155876 35.785777031873 
54.591548356423 27.914964722573 35.782418821104  54.60051146086 27.932555113452 35.731853440268 54.604117773373 27.939644857617 35.711534082824 
54.609965065175 27.951163068307 35.678636147251 54.617265309566 27.965863819364 35.638235825615 54.619411454996 27.970215343312 35.626421249805 
54.625049502472 27.982086919156 35.596306345707 54.628941582698 27.990148168948 35.575236255714 54.630414427259 27.993310869234 35.567498146312 
 54.63859325321 28.011032539646 35.524861178213 54.643962858784 28.023058311066 35.497689185953 54.648432890934 28.033189832378 35.475321956554 
54.658320299161  28.05631409382 35.427344879049 54.658595083049 28.056966246395 35.426031459589  54.65926706176 28.058608858301 35.422919751004 
54.669052115247 28.082172014479 35.376862073952 54.673245290333 28.092561300453 35.357737116339 54.679948065852 28.109484404222 35.327828494819 
54.688471520646   28.1315902531  35.29102476973 54.691381207269 28.139284645372 35.278771432287 54.702770731538 28.170333170263 35.232758361072 
54.704056700614 28.173815796809 35.227514865767 54.704415295056 28.174818277625 35.226118457838 54.717591045591 28.212143671664 35.175841488105 
54.721467160299 28.223467079092 35.161769819939 54.731747167872 28.253798299936 35.125078888376 54.743114166394 28.289123463014 35.088256205958 
54.744623308915 28.293842805377 35.083429076295 54.750054789228 28.311358729317 35.067169327693 54.757644775241 28.335796370352 35.044365570808 
  54.7591695889 28.340812599196  35.04000826356 54.771270228827 28.380938660887 35.006096915568 54.773067895616 28.387038564615 35.001350180921 
54.784950857753 28.427609794462 34.970496722659 54.786943880076 28.434523768907 34.965551271795 54.798980315376 28.476508303591 34.936164728546 
54.801410306946 28.485118006877 34.930512224605 54.812928330172 28.526108639186 34.904099594737  54.81619123002 28.537892004884 34.896976517801 
54.826791929096 28.576353602096 34.874210352743 54.831411265923 28.593369940368 34.864827636672 54.840541463549 28.627153550531 34.846598285015 
54.847052354153 28.651621598917 34.834388197526 54.854206982027 28.678653132089 34.821273585831 54.863115401858 28.712826898999 34.806026741342 
54.867786884709 28.730847261164 34.798241198912  54.87920939075 28.775569754959 34.780588501864 54.881361631542 28.784005060533 34.777280496464 
54.894898565692 28.837708916959 34.757834169909 54.895005002607 28.838130212261 34.757679250774 54.909396819565 28.895707843282 34.738016461964 
54.909486090365 28.896063737969 34.737891868097 54.923044910738 28.950639838103 34.720061573237 54.926453691621  28.96430425419 34.715460628465 
 54.93716867399 29.007697570086 34.701923942386 54.944898129727 29.038943174584 34.692039462799 54.951927190204 29.067698734922 34.683766427433 
54.962873793427 29.112388855412 34.670689717469 54.966717906095 29.128248996845 34.666446479609 54.980770892841 29.186160674037 34.650790707253 
54.981910223872 29.190900643444 34.649615490508 54.988757324933 29.219371495109  34.64252082913 54.997127856236 29.254175289677 34.633844270068 
54.998665949265 29.260582287595  34.63227462805 55.011260735783 29.313461846858 34.620292815878 55.018162577717 29.342565285272 34.613990889142 
55.023572378599 29.365526655108 34.609364935949 55.029510766161 29.390815636973 34.604463344518 55.033807924997 29.409119949401 34.600926089452 
55.043229180519 29.449512605936 34.593719563177 55.045137814802 29.457698894668 34.592266354748 55.057220497034 29.509992224636 34.584052030095 
55.058030095997 29.513498031985 34.583505610839 55.071887392582 29.574065054277 34.575329189328 55.072191412985 29.575396827809 34.575156035714 
55.086448633643 29.638519406643 34.568437605925 55.087160935451 29.641688350524  34.56813402172 55.100856152264 29.703438648249 34.564021198035 
55.102267615793 29.709826213592 34.563646454092 55.115009128605 29.768449485052 34.562280759355 55.116827701617 29.776838755625 34.562132145228 
55.128889005685  29.83351537809 34.563320726882 55.130820929078 29.842612477335 34.563550757558 55.142525745764 29.898782339905 34.567154999464 
55.144246159835 29.907043960937 34.567696472246 55.155882314837 29.963968108949 34.573552891956 55.157103011931 29.969943819101 34.574175761806 
55.168915052252 30.028799782152 34.582368012602 55.169364728418 30.031041213763   34.5826816185 55.174634156431 30.057756387307   34.5872993285 
55.180954582141 30.089809603303 34.592858289246 55.181501824502 30.092634444606 34.593443584637 55.191818150359 30.145809642351 34.604315273849 
 55.19351239894 30.154699181943  34.60642917926 55.201593618721 30.196966548439 34.616231164268 55.204602364199 30.213007483186 34.620518725241 
55.210104400414 30.242284837397  34.62824100142 55.216524313756 30.277010490504 34.638434799523 55.217991238925 30.284940381434 34.640754004865 
55.219322897939 30.292239150456 34.643069319433 55.226485298583 30.332051690354  34.65668801552 55.235874905302 30.385216269052 34.676580419881 
55.236142224485  30.38675030449 34.677189659377  55.23646393426 30.388637176225 34.678008253263 55.245870908868 30.443676105757 34.701662777125 
55.252080013176 30.480835983033 34.719019638749 55.255592385386 30.502370509297 34.729916010445 55.263268449225 30.550434579804 34.755830572365 
55.264851585286 30.560324835518 34.761127801279 55.265530964101 30.564638722042 34.763547088106 55.273386390598 30.616041856974 34.794715363952 
55.276929341654 30.639631876075 34.809624901145 55.281209764706 30.668943577941 34.829339809926  55.28676467706 30.707734555411 34.856501681308 
55.288448696935 30.719784952116 34.865345542625  55.29422840578 30.762297472094 34.898120058968 55.295118479217 30.768827915803 34.903132774085 
55.295351749972 30.770597571452 34.904568492192 55.301197850312 30.816192497628 34.943160742323 55.302774018495 30.828947458536 34.954534906086 
 55.30673555465 30.861904646767 34.985008226245 55.309249832277 30.883704347015 35.006200296946 55.311756256988 30.905991285301   35.0284910166 
55.314962497834 30.935704337112 35.059529732325 55.316295913786 30.948296806536 35.072931850624  55.32005150289 30.985172454943 35.113634091127 
55.320427154452 30.988933258758 35.117857035518 55.322259705164 31.008044060989 35.140061272008 55.324195654826   31.0280252566 35.163082252169 
55.324544325034 31.031750988443 35.167494916286  55.32765760961  31.06590372002 35.208753279113 55.328506017749 31.075479611237 35.220560629937 
55.330901029212 31.103192438829 35.255319752307 55.332057504943 31.116868801807 35.272722016491  55.33398821603 31.140281261518 35.302991458172 
 55.33532720622 31.157210757896 35.325436433803  55.33690633438 31.177586657895  35.35276722598   55.3383515775 31.197156089738 35.379712847993 
55.339617562662 31.214398888257 35.403527387322 55.341230745866 31.238042630087 35.437380420262 55.341976175527 31.248868867831 35.452815341215 
55.343835393582 31.278795168101 35.497445703701 55.344003034958 31.281374364426 35.501219912324 55.344066971605 31.282482889793 35.502921232218 
55.345926330545 31.313236873775 35.549286350857 55.346758149064 31.329122451423 35.574490642051 55.347592473503 31.344263532277 35.598108840413 
55.348934863987  31.37342425594 35.646176585632  55.34898568766 31.374475457125 35.647885620909 55.349077676599 31.376930837782 35.652138338248 
55.350202136707 31.404065104572 35.698082012364 55.350495532691 31.414476191605  35.71705709831 55.351020816754 31.432207453438 35.749124039961 
55.351228682523 31.450307191519 35.785061278832 55.351324900411 31.458428990847  35.80115848338  55.35114317232 31.481247253849 35.850794878857 
55.351125750464 31.483440648059 35.855565697365 55.350700714223 31.498566163127 35.891440173886 55.350463808589 31.508027413549 35.913597623579 
55.350413787347 31.509164667052 35.916471211931 55.349337628924  31.53220460544  35.97530050178 55.349159622957  31.53486765436 35.982623448412 
55.347571414007 31.555977701385 36.042401265588 55.347473416786 31.556892425721 36.045276234637 55.347010238033 31.560768092014 36.057925476226 
 55.34539469499 31.575630933365 36.104866021898 55.344971178124 31.579083815111 36.116241416605  55.34289045373 31.591507962061 36.162605883013 
 55.34165608368  31.59778742505 36.187822613009 55.339906422945 31.604226222005 36.218401800524 55.337694128967 31.611771327472 36.255815963304 
55.336369861781 31.614901309941 36.275303635581 55.333041951883 31.622426175322 36.323561600506  55.33219502675  31.62371870055 36.334537126646 
 55.32758736851  31.63068701409 36.394115553635 55.327385060213 31.630878190987 36.396490700385 55.325449706729 31.632663104452 36.419120008244 
55.321924236911 31.636019878866 36.460562881755 55.321585957052 31.636344197583 36.464544123725 55.315838084194 31.639064594635 36.526338508806 
55.315233899948 31.639376180547 36.532887756135 55.309350976555 31.640121514106 36.591857124485 55.308551979966 31.640225074317 36.599871014044 
55.302669474486 31.639219055623 36.655162706895  55.30151141353 31.638988418944 36.665979367425 55.295804933634 31.636497086211 36.716437828815 
55.293951908749 31.635656796102 36.732757199959 55.288742097466 31.632193987625 36.776331388803 55.285508106889 31.629999739143 36.803286285741 
55.281269272935 31.626364370874 36.837023653088 55.275594574036 31.621661434515 36.882532982806 55.273279499003   31.6194119969 36.900405274832 
55.265250116856 31.611934029619 36.963070923476 55.264020047028  31.61060278505 36.972281640961 55.255114435628 31.601342729428 37.039759526431 
55.253845184115 31.599900040979  37.04911881931 55.244687079601 31.589571151521 37.116818588001 55.243173735974 31.587756390682 37.127779297853 
  55.2340670467 31.576718294124 37.193489736065  55.23203478507 31.574137607255 37.207907494287 55.223729697253 31.563240440604 37.266091461479 
55.218976948591 31.556721903139 37.298795972603 55.214356590073  31.55022026293 37.330244054848 55.207009220579 31.539442288515 37.379332555398 
55.205478114431 31.537212923687 37.389596929063 55.204203424996 31.535274940855  37.39797036709 55.196891750639 31.523931051398 37.445523501247 
55.189449095365 31.511922910189 37.492961436555 55.188494796925 31.510388744069 37.499055514044  55.18747356951 31.508681346788 37.505439323278 
55.179884821502 31.495839047541  37.55255313027 55.172980738496 31.483769275774 37.594606365265 55.171224625861 31.480685713679 37.605274622634 
55.169236379033 31.477077214094 37.617106964324 55.162458576776 31.464701351834 37.657285894438 55.156111145306 31.452717709161 37.694087947719 
55.153389774969 31.447541425507 37.709785610369 55.150237378484 31.441357848504 37.727576379873  55.14418247951 31.429404609874 37.761587655673 
55.137478988351 31.415728656281 37.798314410336 55.133829456708 31.408239241392 37.818217162633 55.131776290003 31.403914662561 37.829180965101 
55.121713654747 31.382392546333 37.882228544174 55.119312936024 31.377179636607 37.894720440164  55.10963323185 31.355824079841 37.944380722683 
55.107198070284 31.350390424761 37.956745683777 55.097495590747 31.328266681374 38.005016878723 55.095274053594 31.323157503511 38.015977894207 
55.085146647691 31.299369786123 38.064905235208 55.083298214331 31.295001410895 38.073779369187 55.072544340926 31.269034296407 38.124248368583 
55.071349378337 31.266132213815 38.129821552359 55.059692043045 31.237284090395 38.183063455166 55.059486839373  31.23677288599 38.183993555815 
55.057910243606 31.232776370798 38.190995085094 55.047836418563 31.207186465463 38.235619351072 55.046423211745 31.203542928565 38.241766919085 
55.036467712719 31.177599015784 38.284493993467 55.032376309497 31.166785179828  38.30173532762 55.025207925477  31.14756996392 38.331379505714 
  55.0164668226 31.123780847824 38.366776272031 55.013760199117 31.116285276174 38.377465147013 55.008417914788 31.101306937303 38.398177296953 
55.001683756401 31.082379106898 38.424187084737 54.997966476884 31.071778265854 38.438224467272 54.989122172562 31.046167520275 38.470807271002 
54.977974276939 31.013395788229 38.510847952231 54.976088927029 31.007766077869 38.517436571979 54.972694007759 30.997507289041 38.529045822049 
54.962696619799 30.967188995144  38.56300604716 54.957681829437 30.951796044395 38.579652807678 54.949163929426 30.925289010219 38.607170500571 
54.938215590965 30.890727051091 38.641508748768 54.935619855293 30.882387676882 38.649345631375 54.929546555268 30.862526834439  38.66694965229 
54.922264683408 30.838690652596 38.688008417372 54.919066913861  30.82805752393 38.696908659905 54.909006421593 30.793826471217 38.723277345487 
54.899248377742 30.760155765362  38.74787008958  54.89588538132 30.748265377075 38.755745427615 54.890203995514 30.727938483837 38.768547544707 
54.882703106935  30.70119327241  38.78564157442  54.87805416925 30.684459039651 38.795904875952 54.869266574924  30.65208517773 38.813748137421 
54.855511015482 30.601292228876 38.841433679576 54.855454347506 30.601083156181 38.841548103383 54.855418783015  30.60095215404 38.841620356969 
54.841303302384 30.547810474129 38.867891389027 54.832233172632 30.513982282459 38.885441081031  54.82686186402 30.493554649612 38.895006134268 
54.815640563824  30.45160473408 38.916511149168 54.812252027612 30.438870964082 38.922866647548 54.810830417416 30.433595354441 38.925672816878 
54.797434079868 30.383159720883 38.950602543556 54.792023199369 30.363027642644 38.961173690762 54.782601493682 30.327467215072 38.978520585619 
54.774545985385  30.29738767076 38.994032610509 54.767849052024 30.272017731234 39.006166329317 54.757845132303 30.234374589811 39.024825854787 
54.753108381366 30.216248376634 39.033026256987  54.74150539861  30.17180344499 39.053022266488 54.738410352027 30.159760381232 39.057962682788 
54.725267668639 30.108226061185 39.078112654319 54.723782514762 30.102322271126 39.080221230035 54.711831919488 30.054372931036 39.096258497418 
54.709356065852 30.044407442476 39.099514661593 54.709051994456 30.043167721845 39.099881400917 54.695229247986  29.98632880504 39.115540671041 
54.692882613461 29.976589244824 39.118009808443 54.681487619359 29.928987251377 39.129354067758 54.676780223785 29.909163867987 39.133708071863 
54.668252013505 29.873004069725 39.141078950135 54.660829631828 29.841314366796 39.147035448841 54.655460320872 29.818240976818 39.151031327587 
54.644991602579 29.773052768515  39.15840002545 54.642970703362 29.764262556504 39.159681946845 54.635504749127 29.731653329728 39.164134856838 
54.630547048919 29.709902455283 39.166888288572 54.629230718208 29.704111603114 39.167586372159 54.617984850954 29.654305218606 39.172851559781 
 54.61357891417 29.634738542384 39.174802371409 54.605017164115 29.596517907473 39.178177768073 54.597807418921  29.56422771904 39.180799780253 
54.591537760181 29.536024824774 39.182821781006  54.58190290692 29.492516031426 39.185576269623 54.577568760021  29.47291784684 39.186760459339 
 54.56587844976 29.419762885554 39.189338652505  54.56328369482 29.407972589268 39.189927387782 54.549861959839 29.346542960955 39.192044185861 
54.548943819974 29.342350411169 39.192209259114 54.541456879646 29.307835606647 39.192869855418 54.534829235067 29.277233088854 39.193351709888 
54.534041827295 29.273559375016  39.19332938906 54.521081663699 29.213233863984 39.193258113457 54.518563130923 29.201353082512 39.192913267884 
54.507868464215 29.150987420257 39.191626673916  54.50353593768 29.130228727212 39.190360795315 54.495177357319 29.090224178855 39.188011750957 
54.488995003165 29.059999550319 39.184941082751 54.482943916531  29.03046815193 39.182043601125 54.474851814207 28.989990953433 39.176102825245 
54.471017632753 28.970864327589 39.173397448695 54.460850402216 28.918773324799 39.163345060228  54.45927998929 28.910773090448 39.161888144793 
54.452072235061 28.872842319295  39.15265916832 54.447686467301 28.849703166646 39.146919622242 54.446804991942  28.84487713646 39.145398146325 
54.436046256619 28.786276684472 39.127463626828 54.432843885262 28.768058220323 39.120497943404 54.424301714416 28.719927413228  39.10289492838 
 54.41972005226 28.692319159585 39.089692646659 54.412344306523 28.647809339553  39.06830287656 54.409887421806 28.632204874448 39.059545749118 
54.402240750695 28.583438753537 39.031871765641 54.400994587161 28.575144342398 39.026633743532 54.393824928873 28.526993455344 38.995595536785 
54.392747895781 28.519423553907 38.990226843539 54.386104615713 28.472797980946 38.957251666587 54.384705805061 28.462520515608 38.949343575297 
54.379024240308 28.420937420895 38.917560903843 54.376769324592 28.403518145434 38.903026243134 54.372647505816 28.372267562485 38.877696709096 
54.368686914021 28.340278491584  38.84924487515 54.366922904103 28.326630466066   38.8378304116  54.36355904425 28.298826024083 38.812333210504 
54.361586027361 28.282856979662 38.798089733883 54.360655451294 28.274825235816 38.790323152505 54.356388007391  28.24020524923 38.759347052518 
54.352885208826 28.209939841274 38.730043557575 54.351496582025  28.19885649821  38.72034570039 54.349208805111 28.179523039279 38.702116552927 
 54.34651131406 28.157322990293 38.681872528895 54.345154069985 28.145155260405 38.669593851252 54.341585586726  28.11602066665 38.643303282778 
 54.33761628472 28.079816989012 38.606095978459  54.33718608055 28.076310017173 38.602937794494 54.336654093917 28.071288855437  38.59759667983 
54.332770204452 28.036449149783 38.562416951285 54.330698575964 28.013394283194 38.534272670723 54.329142573225 27.998946278617 38.519150440482 
54.327465352001 27.981092180433 38.498066522514 54.325351663761 27.960711655882 38.475942304214 54.323864311963 27.945768589641 38.459111743017 
54.320651327635 27.919321817258 38.434990105623 54.315637056105 27.878372832404 38.398026035471 54.315272807527 27.875809476338   38.3962035597 
 54.31414661305 27.868096140739 38.391013722354 54.307759520177 27.825614777958 38.364231455982 54.305959676712 27.813411466872 38.356197059475 
54.299327709991   27.7722167399 38.334503107673 54.296067616598 27.750632408227 38.321040511114 54.290852804304 27.718527679762 38.304584846803 
54.286464346238 27.689419935838 38.286351968797 54.282415564567 27.664376742575 38.273330215979  54.27774764177 27.631337944467 38.249578682449 
54.275764601452 27.617625805528 38.240167049808 54.272847922672 27.595607309059 38.222442695307 54.269584556602 27.573081582854 38.207037385562 
54.267936174848 27.561017053599 38.197816120871 54.263655235654 27.529604274284 38.173699075391  54.26026736327 27.501885518147 38.148615922954 
54.258810719106 27.489718094183 38.137307839962 54.255475340207 27.456179684355 38.099505276522 54.255179452965 27.453106896291 38.095947152898 
54.253163852583  27.42164570262 38.049623221764 54.253102751843 27.420664447927 38.048161189017 54.252721812412 27.395425589823 37.998937955773 
54.252662242066 27.392587671912 37.993566493933 54.253276885993  27.37355758693 37.947651673629 54.253377899166 27.367682313437   37.9343421373 
54.254419430906 27.354113685925 37.895717547724 54.254971389739 27.345164435024  37.87155974592 54.256057911736 27.336562611731 37.842914396207 
54.257395918055 27.324827261267 37.805242228294 54.258164697474 27.320676185024 37.789033220502 54.260677370811 27.306564796555 37.734914646205 
 54.26075412261 27.306326993973 37.733666887441 54.260977841972 27.305618788521 37.729998302455 54.263892571117 27.293877524274 37.676927959557 
54.264778329909 27.290296435458 37.660773051883 54.267826709601 27.283886390887 37.617581185341 54.270694783103 27.277989472023 37.577225080122 
54.272665885022 27.276441095123   37.5547430904 54.277710852717 27.273377317066 37.499087434165 54.278900105316 27.272108539234 37.484821264941 
54.279212153009 27.271632627534 37.480778020197 54.283163859305 27.273299891452  37.44571421255 54.287124814435 27.274818122965 37.410247547086 
54.287731453945 27.275489408315 37.405735989995 54.295457897398 27.282031094752 37.344062516241 54.296170194317 27.282913595326 37.338962987195 
54.304172580915 27.291553694505 37.278998424977  54.30442331898  27.29189887268  37.27727574365 54.308390623562 27.296592527264 37.248407816497 
54.312954549736 27.301915505693 37.215038070272 54.313213022964 27.302154729472  37.21301766112 54.321401908607 27.311095913952 37.151864778136 
54.322105610785 27.311749505851 37.146368963429 54.329958109957 27.320543348368 37.088189501687 54.331146992703  27.32179454854 37.079212791247 
54.338802036747 27.331506661658 37.024886254241 54.340657042783 27.333908087721 37.011822154885 54.348079321402 27.345071782663 36.962811764695 
54.350896044843 27.349583679429 36.944790036736 54.357924521897 27.362185017452 36.902637957554 54.361982326692 27.369697529757 36.878799696233 
54.368128402071 27.381886823136 36.844393857955 54.373570966875 27.392887405606 36.814359510982 54.378579684778 27.403469913477 36.787681728113 
54.385360843787 27.417991219745 36.751970278142 54.389212534479 27.426496812176 36.732226355237 54.397155217003 27.444238675884 36.691936048031 
54.400031540321 27.450805529056 36.677643171129 54.408915868399 27.471297681884  36.63393316669 54.411051428978 27.476313281522 36.623614828958 
54.420651323002 27.499048330241 36.577626931001 54.422296873537 27.503000561439 36.569859647212  54.43237280568 27.527397657107 36.522712809025 
54.433771433259 27.530823011876 36.516249852253 54.444089114682 27.556300583623 36.469010390427 54.445525040043 27.559878392449 36.462503263548 
54.455705712218 27.585331497336 36.416549426305 54.457731216098 27.590429300176  36.40747745706 54.467213063067 27.614301525797 36.365026787363 
54.470576973106 27.622821355057 36.350072524657 54.478758288039 27.643468541021 36.313547765152 54.484410758711 27.657836915299 36.288529347289 
54.490374203966 27.672897241701 36.261927841302 54.499317635514 27.695690192585 36.222467203868 54.502085110156 27.702690951821 36.210146631563 
54.510220341264  27.72349359446 36.174397643668 54.513867397266  27.73270874374 36.158138910864 54.515171165795  27.73603573825 36.152395276974 
54.525571199649 27.762250358964 36.105898231929 54.531283699992 27.776726329239 36.080519731349 54.537218375711 27.791505632823 36.053609493278 
54.546983504588 27.815766067482 36.009208837759 
POLYGONS 1 467
466 0 1 2 3 4 5 6 7 8 9 10 11 12 13 14 15 16 17 18 19 20 21 22 23 24 25 26 27 28 29 30 31 32 33 34 35 36 37 38 39 40 41 42 43 44 45 46 47 48 49 50 51 52 53 54 55 56 57 58 59 60 61 62 63 64 65 66 67 68 69 70 71 72 73 74 75 76 77 78 79 80 81 82 83 84 85 86 87 88 89 90 91 92 93 94 95 96 97 98 99 100 101 102 103 104 105 106 107 108 109 110 111 112 113 114 115 116 117 118 119 120 121 122 123 124 125 126 127 128 129 130 131 132 133 134 135 136 137 138 139 140 141 142 143 144 145 146 147 148 149 150 151 152 153 154 155 156 157 158 159 160 161 162 163 164 165 166 167 168 169 170 171 172 173 174 175 176 177 178 179 180 181 182 183 184 185 186 187 188 189 190 191 192 193 194 195 196 197 198 199 200 201 202 203 204 205 206 207 208 209 210 211 212 213 214 215 216 217 218 219 220 221 222 223 224 225 226 227 228 229 230 231 232 233 234 235 236 237 238 239 240 241 242 243 244 245 246 247 248 249 250 251 252 253 254 255 256 257 258 259 260 261 262 263 264 265 266 267 268 269 270 271 272 273 274 275 276 277 278 279 280 281 282 283 284 285 286 287 288 289 290 291 292 293 294 295 296 297 298 299 300 301 302 303 304 305 306 307 308 309 310 311 312 313 314 315 316 317 318 319 320 321 322 323 324 325 326 327 328 329 330 331 332 333 334 335 336 337 338 339 340 341 342 343 344 345 346 347 348 349 350 351 352 353 354 355 356 357 358 359 360 361 362 363 364 365 366 367 368 369 370 371 372 373 374 375 376 377 378 379 380 381 382 383 384 385 386 387 388 389 390 391 392 393 394 395 396 397 398 399 400 401 402 403 404 405 406 407 408 409 410 411 412 413 414 415 416 417 418 419 420 421 422 423 424 425 426 427 428 429 430 431 432 433 434 435 436 437 438 439 440 441 442 443 444 445 446 447 448 449 450 451 452 453 454 455 456 457 458 459 460 461 462 463 464 465 

CELL_DATA 1
FIELD FieldData 6
ClosedSection 1 1 int
1 
SectionArea 1 1 double
        15.8841 
SectionLength 1 1 double
        14.3663 
SectionMinSize 1 1 double
        1.89454 
SectionMaxSize 1 1 double
        2.46401 
SectionShapeFactor 1 1 double
       0.768883 
