# vtk DataFile Version 4.2
vtk output
ASCII
DATASET POLYDATA
POINTS 460 double
48.044918418099  26.15508915898 26.753528473822 48.068723392306 26.140818891709 26.797507349374 48.088308536378 26.128661900018 26.833904648563 
48.092992866557 26.125894308929 26.842537929878 48.099139680154 26.122112906322  26.85394370255 48.116571185921 26.110913556103 26.886533913678 
48.129647915353 26.102202462643  26.91114179588 48.139224651408 26.096039226386 26.929051963863 48.151535488017 26.087766031651 26.952255816875 
48.161055329599 26.081133301821 26.970320211097 48.168049796572 26.075958450522 26.983747898728 48.182993849412 26.065262439109 27.012251311233 
48.201360060039  26.05132009508 27.047692358695 48.206178575955 26.047776482783 27.056931744403 48.215932476044 26.040247557082 27.075817809242 
48.229293481619 26.029696199012 27.101810798367  48.23681845979  26.02342799857 27.116617853775 48.252011448499 26.010954785907 27.146419517469 
48.272290616484 25.993427327142 27.186650362009 48.273927071672 25.991970643815 27.189918618336 48.274938416979 25.991026711426 27.191960930462 
48.294987551185 25.972566056107  27.23231837248 48.305244703318 25.962657382154 27.253204311638 48.315732031683 25.952649732752 27.274495406064 
48.333290202351 25.935097311279 27.310552140267 48.336820646635 25.931601335103  27.31778496025  48.34917343139 25.918822133277 27.343373802132 
48.358030707233 25.909529542601 27.361788403899  48.36044586145 25.906886762968 27.366865691467 48.379392001814 25.886472646765 27.406531855322 
48.387932071363 25.876893115771 27.424606116852 48.400965789957 25.862567140201 27.452039289324  48.41650241266 25.844791020413 27.485100540852 
48.422675308745 25.837921459771 27.498136744802 48.439454184935 25.818501440018 27.533956080559 48.444549424329 25.812519086176 27.544877146746 
48.446457722412 25.810189139042 27.549013405607 48.466545875487 25.786569697072 27.592087488351 48.476759905292 25.774046906861 27.614253253675 
48.488555934091 25.760206912195 27.639531653357 48.506373355658 25.738287988706 27.678235913113 48.510275550786 25.733710585291 27.686597667213 
48.520976549516 25.720515951215 27.709858738242 48.531726222766 25.707055706984 27.733331487949 48.535384221019  25.70222478018 27.741448037294 
48.552742332466 25.680376661109 27.779409066556 48.564652687824 25.664469847399 27.805927729165 48.573492752633 25.653263232166 27.825301504932 
48.591678784909 25.628866488601 27.865848961796 48.593865546616 25.625850600358 27.870766946083  48.59495344175 25.624298373647 27.873240301043 
48.613682775878 25.598824692597 27.915178356001 48.629937517516 25.576047584189 27.951919960505 48.632710888401 25.572302592395 27.958116059853 
 48.63535491719 25.568721940736 27.964028503003 48.651664404554 25.544891286291 28.001396888555 48.663771723154 25.527620356077 28.028921104266 
48.670998603693 25.515906588682 28.046073740704 48.688799501208 25.488154323954 28.087756546604 48.691051482139 25.484067648744 28.093326306646 
48.702495776692 25.464665448622 28.120927818285 48.711507514895 25.449462481112 28.142623744183 48.713366700452 25.446450901694 28.147035448077 
48.731180901765 25.412166444576 28.192102582681 48.736648378561 25.402000478249 28.205750851775 48.749897004354 25.373108332502 28.241015798291 
 48.75860784546 25.354719044701 28.263889562174 48.767336018552 25.333053432653 28.288477191612 48.778949015714 25.304928877738 28.320830012916 
 48.78336326865 25.292103687963 28.334227031731 48.797173083672 25.252628146886 28.375805603821 48.797836437051 25.250268372536 28.378041549992 
48.800534084685 25.240699836657 28.387120056848 48.810146016298 25.206235956753 28.419658253159 48.812520277571 25.197612329696 28.427752549642 
48.820302062525 25.159817491033 28.459189917842 48.824105461769 25.140617006691 28.474930038936 48.827977890646 25.110435648256 28.496431157548 
  48.8315290647 25.081589788946 28.516750204971 48.832820590391 25.057620762548 28.531080789609  48.83475442848 25.021004654711 28.552912557304 
 48.83439909439 25.001187231969 28.562571082946 48.833848924481 24.959669952075 28.583104492573 48.832361957397 24.942073182475 28.589878144208 
48.829093381137  24.89861548921 28.607227822441 48.826251166999 24.880019534584 28.612430618767 48.820893813164 24.840495543406  28.62454044393 
48.815134472492 24.815070629479 28.628771161148 48.808986285929 24.785123995366 28.634732069766 48.792583894438 24.732063958332 28.636816822874 
48.791970316642  24.72994443251 28.636964156973 48.791142047509 24.727912402661 28.636736074902 48.769634766125 24.676321702036 28.630208962784 
48.741549259483 24.626960295021 28.612411521885 48.740354791654 24.624798314444 28.611686867656 48.738716684467 24.622419025588 28.610391464754 
48.708291095773 24.578128477297 28.586381876121 48.688196843668 24.554310411711 28.567727114473  48.67564673925 24.538336879464 28.556641326725 
48.641364161603 24.501439245632 28.522889652892 48.640599596481 24.500533376418 28.522179661588 48.637549827639 24.497299576042 28.519152092829 
 48.60391082876 24.461710518185 28.485716860874  48.59543549481 24.453579917132 28.476862328779 48.566070442203 24.422060322506 28.447908044396 
48.540489153705 24.396600163251 28.421655666158 48.530222947187 24.385518253141 28.411565232695 48.513993799045 24.368589562123 28.395310149297 
48.494631175163 24.348650535862 28.375783615251 48.482606385668 24.335995173152 28.363797417089 48.459785872586 24.310151142477 28.341990893885 
48.429220809828 24.274703207909 28.313213042073 48.426989486969 24.272100888899 28.311119674829  48.42483250101 24.269522471658 28.309128385726 
48.395286210949 24.231442022066 28.283273837757 48.380004873313 24.211077200908 28.270246698833 48.368093147649 24.194987173812 28.260203214479 
48.350349164533 24.168238326943 28.246674208597 48.336816323803 24.147959592955 28.236293257021 48.320635219165 24.119799260463 28.225896015189 
48.304860385721 24.092797785217 28.215527155593 48.292283282727 24.067413140022 28.209246227175 48.274914358942 24.033656722851 28.199903008885 
48.266495021874 24.014317693622 28.196906602648 48.248859033541 23.976436668364 28.189276468924 48.243244371936 23.961983776728  28.18807959367 
48.227139330941 23.923324069484 28.183206217204 48.220055000339 23.903450624665 28.182539273098 48.208205658669 23.871963779413 28.180520621499 
48.196020948449 23.835883639992 28.180351308333 48.189524450279 23.818013683715 28.179557169418 48.171293753614 23.763016779674 28.179826018094 
48.170655388291 23.761261557481 28.179747606103 48.168394061085 23.754532257481 28.179733324444 48.151971889653 23.702898281864 28.181053267726 
48.148129220226 23.689712117368 28.181930743928 48.131891053301  23.64294268318 28.181028752517 48.123728968572 23.618017701205 28.181304772253 
48.108346466959 23.579758421616 28.177337004757 48.096812560458 23.548730578564 28.175567362026 48.080112472475 23.511753622714 28.168911790458 
48.069282115105 23.484019576508  28.16652854832 48.048706805447 23.443150444557 28.155914274292 48.044652835745  23.43484444166 28.153953492258 
48.036748810252 23.420054653003 28.149407323051 48.020907255037 23.388358708351 28.141353286961  48.01544035615 23.377855704989 28.138349724878 
47.993904751692 23.338996865248  28.12522255416 47.986871655981 23.326207122717 28.120986582109 47.961188510001  23.28415060921 28.103124028571 
47.956689149072 23.276299458907 28.100243662123  47.94272805407   23.2563806904 28.089018359457 47.925715044943 23.230035753188 28.076406148276 
47.915829611528 23.218553399344 28.067107848645 47.893802293596 23.190534964636  28.04764160768 47.872664346949  23.16875292153 28.026332366834 
47.859977595028 23.154049172342 28.014382416029 47.844080972902 23.137877661224  27.99824908884 47.825515535509 23.118117273398 27.979857241759 
47.811507827675 23.105966088655 27.964560171118 47.790117856611 23.083965576002  27.94297562926 47.756987270778 23.057596085159 27.905574959569 
47.750020703857 23.051242119133 27.898127153017 47.711438512569 23.021040697664 27.854311078185 47.708538216722 23.018557338502 27.851127060932 
47.668369177049 22.987733994794 27.805189474105 47.667428842268 22.986971929447 27.804134961148 47.627307055678 22.957650553203 27.757496623279 
47.627106539764 22.957497076027 27.757267112693 47.587356610945 22.930158372787 27.710179965867 47.586960505679 22.929880400082 27.709713600931 
47.548299445003 22.905289037883  27.66288717486 47.547288035177 22.904623386709 27.661673644348 47.510152727177 22.882205719297 27.616075608376 
47.508418869629 22.881107801772 27.613973005789 47.472788888135 22.859915772821 27.570060145739 47.470497743406 22.858471441759 27.567278402435 
47.436099517331 22.837530818095  27.52513145473 47.433430093732 22.835793088894 27.521918720631 47.399973083468 22.814319373234 27.481494603645 
47.396979030537 22.812267974459 27.477943871686 47.364041564518 22.789631415137 27.438918034272 47.360719072186 22.787206328744 27.435054348923 
  47.3282185129 22.763176797902 27.397418139714 47.324456255187 22.760255662788 27.393133208679 47.292425674753 22.734833125632 27.356937535689 
47.288056733659 22.731229292705 27.352070629964 47.256692429754 22.704882742505 27.317376032843 47.251384865986 22.700324186424 27.311556460915 
 47.22097272222 22.673872302641 27.278381254158 47.214070256368 22.667839678769 27.270866603546 47.185342056678 22.642504702514 27.239707415251 
47.175792060178 22.634154714423 27.229312210925 47.149107502084 22.610794287077 27.200280873509 47.134432449115  22.59826727311 27.184150457313 
47.112544404353 22.579552357673 27.160107527906 47.087745448294 22.559065994843  27.13249763621  47.07450373555  22.54810465437 27.117766519739 
47.060932987292   22.5374460204 27.102373212589  47.03585652244 22.517760713755 27.073923784369 47.012705397526 22.500558369132 27.047158353522 
46.997707171445 22.489441998741 27.029804217504 46.968785654969 22.469393533312 26.995625187209 46.959033296654 22.462690232531 26.984070608294 
46.927293116319 22.442646662475 26.945551806271 46.920285153824  22.43822254669  26.93704649445 46.886561440331 22.419086027493 26.895008408025 
46.881279338555 22.416086595869 26.888425119856  46.84671842055 22.398848643468 26.844121078104 46.842944937028 22.396941832016 26.839296530975 
46.807594387191 22.381747985715 26.792724789091 46.805507027026 22.380824234746 26.789988540505 46.769792692655 22.367963707428 26.741655441001 
46.769344510198 22.367801619126 26.741049265167 46.734122437545 22.357372275251 26.692221661988 46.731370165164 22.356805627626 26.688278376136 
46.699428035709 22.349122695569 26.643083513661 46.693587063784 22.348277463349 26.634530918185 46.664422976782 22.343020580265 26.592361466977 
46.654846202281 22.342387904289 26.577950903937 46.629271359581 22.339916758429 26.539869882746 46.616877930986 22.340577249404 26.520459224394 
 46.59423765952 22.342122744925   26.4848253738 46.582775553396 22.344316290292 26.466058327428 46.558353860931 22.350477719557 26.425306246012 
46.551049448679 22.352988031836 26.412773773735 46.525083851293 22.363388118892 26.367463226348  46.52201895467 22.364981193667 26.361926702699 
46.496419782471 22.380471972515 26.314558462738 46.495041592879 22.381481823599 26.311917718945 46.471685191553 22.399006555648 26.266953151087 
46.464316650095 22.406034575462  26.25199553325 46.448056659224 22.420860582082 26.219340398937 46.433978761002 22.438609604785 26.188537730223 
46.424569318916 22.450046124059 26.168169425978  46.40437260521 22.480240782871 26.121542280871 46.403156091471 22.482055957144 26.118735603515 
46.399049943383 22.489339200223 26.108666598925 46.383404711571 22.515702743124 26.071015992518 46.379786582401  22.52310470644 26.061636795646 
46.366108237288 22.550676308346 26.026390648935 46.359035889775 22.567722897405 26.006729579805 46.350655384702 22.587278838637 25.983763337304 
46.340898268297 22.614396821336  25.95478462395 46.336785804842 22.625341737335 25.942820264267 46.324923271939 22.662998777646 25.905174560645 
46.324330214504 22.664750108367 25.903360110964 46.322286544861 22.671881344117  25.89654304694 46.312436946373 22.704436477453 25.864622077734 
46.310337311374 22.712697334212 25.857137179916 46.301083266209 22.744494931473 25.826522730459 46.296713267924 22.761825260263 25.810873815329 
46.290098906915  22.78454243343 25.788997319776 46.283718911995 22.809237137513 25.766463096392 46.279187314595  22.82438768679 25.751688031255 
46.271213628308 22.854266181114 25.724032021319 46.268152931612  22.86427580707  25.71416772221 46.259112340214 22.897084489996 25.683361052349 
46.256795594884 22.904475670353 25.675989927387 46.247265278656 22.938546706537 25.643779618849 46.244990703968 22.945717945657 25.636586646707 
46.235563133675 22.979370910152 25.604749732363 46.232693589189 22.988461189984 25.595653002918 46.223931819605 23.019745464892 25.566060391647 
46.219906520001 23.032587150226 25.553253384502 46.212263151849 23.060000790913 25.527374971268 46.206358700762  23.07906063031 25.508474260344 
46.200358300999 23.100017977718 25.488448755103 46.191316002253 23.129371616491 25.459418688493  46.18802489227 23.140722935543 25.448508911944 
46.177843172539 23.175189790925 25.415092415477 46.175424935045 23.182940998398 25.407379716559   46.1745074177 23.185895495453 25.404446410715 
46.162771251292  23.22558644058 25.365947763027 46.154329965805 23.255114803982  25.33775253509 46.150106648972 23.270257540122 25.323455863651 
46.144384837276 23.291386107856 25.303770866281   46.1379568376 23.313621736598 25.282429115362 46.133732174684 23.328966415012 25.268026379206 
46.127195018165 23.353576482682 25.245293906519 46.120155263078 23.380933045829 25.220373702686 46.118751792256 23.386609504281 25.215290912737 
46.111603514416 23.414970236578 25.189686605269 46.107751869666 23.431251811661 25.175375385041 46.102099742833 23.454838320933 25.154531859587 
46.096072874107 23.481928786187 25.131307277439 46.092492864035  23.49801213569 25.117516117576 46.084848118673 23.534781590111 25.086817658669 
 46.08281948197 23.544703463126 25.078586643292 46.074596086399 23.587177983973 25.044059864314 46.073442493175 23.593261866736 25.039151766643 
46.065022434437  23.63941221973 25.002429441227 46.064369266436 23.643072434266  24.99953948537 46.055907605489 23.691363709395 24.961650641862 
46.055599444668 23.693163118903 24.960249821114 46.047258858785 23.743007560192 24.921747455379 46.047229999637 23.743186747287 24.921610772768 
46.046526233594 23.747716717465 24.918195063973 46.039401718583 23.793572629972 24.883617897922 46.039124003986 23.795452789353   24.8822223432 
46.032321159511 23.844740053958 24.846373121464 46.031693127206 23.849626964255 24.842890136768 46.026270708316 23.896659093164 24.810326378787 
46.025210965887 23.906456024703 24.803650601011 46.021197303879 23.950285661599 24.774903758232 46.019624799259 23.968359827873 24.763176466951 
46.017132423879 24.005278051798 24.740329664176  46.01496324586 24.038424532283 24.719922504815 46.013968163926 24.062142689119 24.706177265655 
46.012996892976 24.089766674445 24.690457296834 46.012044371855 24.113489910828  24.67677493281  46.01137679623  24.15936380668 24.652124194195 
46.011344671973 24.161694541312 24.650874513417 46.011869570401 24.195549459067 24.634248073405  46.01216886755 24.214318635254 24.625043131681 
 46.01222086179 24.215378344443 24.624577424145 46.015165328442 24.270297800959 24.600826599614 46.015229063107 24.271043422265 24.600540702386 
 46.01720374684 24.291346779563 24.593123729455 46.020912347996 24.329376717726 24.579246254113 46.021080662547 24.330835441749 24.578754056673 
46.029522353686 24.388217739733 24.562193868522 46.030512005146  24.39437696627 24.560544913277 46.040673333059 24.447196866392 24.548980315613 
46.043374090274 24.460508683471 24.546281002308 46.053909739107 24.505575483327 24.539284978625 46.059582934309 24.529065544173 24.535918087748 
46.068732999553 24.562561961643 24.532748335854 46.079005100419 24.599317585436 24.529626748301 46.084586941868 24.617304021756  24.52895346561 
46.098180946816 24.659854817546 24.527959178548 46.100535245621 24.667312794684 24.527741277312 46.101536318355 24.670372128341 24.527706236284 
46.116823189044 24.713953022721 24.528786399653  46.12482012867 24.736260281199 24.529604299765 46.133436399519 24.758745128442 24.531283750591 
46.146244609437  24.79155461669  24.53409675527 46.151896917355 24.805251610356 24.535740821008 46.168750044262 24.845065169311 24.541171128639 
 46.17270423438 24.854039670688 24.542634119689 46.193387082968  24.89975945921 24.550915946986 46.195917844187 24.905177250023 24.552020205979 
46.219790335915 24.954823938102 24.563187912638 46.221162887585 24.957610973699 24.563864713265 46.247938830516 25.010323888764 24.577921135373 
46.248160512811 25.010752757033 24.578041398902 46.253523889222 25.020886027539 24.581076064478 46.276338902571 25.063980601261 24.593990680834 
46.277342380953 25.065836370527 24.594579136328 46.305301191349 25.116954648574  24.61127689301 46.307710100187 25.121276512352   24.6127580155 
46.334594195193 25.169007869432 24.629546191086 46.338801503354 25.176344169343 24.632242288522 46.363985591907 25.219770239992 24.648631636383 
46.370476568846  25.23077375118 24.652953265569 46.392470789219 25.267640475437 24.667812008544 46.401740734436  25.28291898661 24.674208326614 
46.419768627126 25.312389451392  24.68677266072 46.431366204236 25.331057829663 24.695004982117 46.445642491402 25.353922276038  24.70519836617 
46.456588725154 25.371225182533 24.713131597246 46.479804784633 25.407826274866 24.730007250338 46.485556097153 25.416709290397 24.734282695843 
46.506774746179  25.44937565029 24.750111064726 46.517427537349 25.465819869821 24.758034952359 46.520424701194 25.470456433066 24.760259199328 
46.550646661911 25.515811647946 24.783407185965 46.562281606376 25.533337481173 24.792285378713 46.583041175206 25.563482945097 24.808705508619 
46.597946354735 25.585008717033 24.820555979776 46.613557761657 25.606731941444  24.83339148497 46.626286757232  25.62446978186 24.843843984688 
46.653728460719 25.661286257852 24.867110979845 46.657614616424 25.666585556351 24.870361886898 46.668762087635 25.681184605289 24.879997169238 
46.689616382203 25.708359944908 24.898092572633 46.697432002228 25.718149926974 24.905077437597 46.723164291986 25.751141853033 24.927683566499 
  46.7439192072 25.776568262638  24.94652668838 46.757066399877 25.793168905534 24.958208311721 46.788164117192 25.830355598646 24.986910390109 
46.791300321599 25.834087967744   24.9898142166 46.792699892577 25.835647098229 24.991164922942 46.825722272841 25.873834640961 25.022313194556 
46.842721407615 25.892370761473 25.038925331938  46.86000735549 25.911916585979 25.055458842931 46.891497868998 25.945555456984 25.086592348837 
46.893729727914 25.948019539593 25.088757727999 46.899218681036 25.953677965829 25.094290019048 46.927084282664 25.982367677967 25.122394299756 
46.939137506548 25.993863471374 25.135021390481 46.959332539291 26.013802262713 25.155828924021  46.98415934279  26.03634856185 25.182420869008 
46.992287570433 26.043990652155 25.190992853812 47.019794211489 26.067641952828 25.221139390762 47.027436512144 26.074244192366 25.229499137782 
47.029587738076 26.075961690522 25.231924907682 47.065029022688 26.105251042722  25.27137756168 47.076118360863 26.113522437392 25.284181918301 
47.111483689536 26.140429482208 25.324744501674 47.115425361417 26.143228985357 25.329368144614 47.132519603976 26.155252397093 25.349480454108 
47.153190743319 26.170140469949 25.373621550607 47.158930655157 26.174119354263 25.380404914283 47.189442222701 26.194286614874 25.416969478091 
47.211390367859 26.207669739007 25.443850579184 47.225084933599 26.215921533961 25.460673852268 47.242310575257 26.224924336625 25.482543864738 
47.261992421089 26.235746755115 25.507256348682 47.283967384237 26.246196569599 25.535689271152 47.299612309223 26.253756682837 25.555869874109 
 47.31431317201 26.259679166854 25.575441114175 47.336972182317 26.269470131979 25.605265906975 47.355755362018 26.276300466049 25.630651346241 
47.373593692473 26.283025732855 25.654636994156 47.403726478148 26.292584857478 25.696081533017 47.414109112455 26.295614810021 25.710497605862 
47.441725623327 26.303120549646 25.749127622082 47.457264134739 26.306892213678 25.771095402689 47.476360085427 26.311360829704 25.798178326455 
47.500961410219 26.316155832757 25.833564628429 47.507244012857 26.317394271817 25.842594299966 47.516882288961 26.318816042244 25.856693142435 
47.536991331673 26.322226010752 25.885880140504 47.551765891149 26.323744174673  25.90783285752 47.566375763285 26.325380984295 25.929471061525 
47.582313170625 26.326146750574 25.953600583041 47.595395012922 26.326981403422  25.97330059742  47.60790262769 26.326917606771  25.99257968371 
47.623675724285 26.327027618178 26.016794061712  47.63838467296 26.326061902308 26.039924933141 47.650741154569 26.325420694237 26.059268808859 
47.663301604017 26.323765254662 26.079448837182 47.675993223871 26.322145124249 26.099812522427 47.690792864693 26.319140987531 26.124132664958 
47.700894783829 26.317246564889 26.140652670224 47.706621336315 26.315915501435 26.150149919892 47.727358286796 26.310650844649  26.18477025567 
47.743173629647 26.306049581033 26.211475787281 47.757468694342 26.301419964615 26.235856574475 47.775788033729 26.294473295409 26.267622963234 
 47.78632934363 26.290869568327 26.285699319754 47.804903007013 26.283043993121 26.318309659182 47.814455666832 26.279032909228 26.335074494176 
47.818016625997 26.277321640483 26.341435205532 47.844432552311 26.265795620981  26.38801851862 47.853881923475 26.260798848934  26.40513201297 
47.876213694958 26.250714002368 26.444688631646 47.900352600372 26.237685325805 26.488541970538 47.907371305626 26.234254082375 26.501109056233 
47.916869336199 26.229151700059 26.518351811501 47.937477153972  26.21752359858 26.556050400869 47.952521457376 26.208662462199 26.583763176706 
47.965497804751 26.201479332057 26.607429745648 47.981715517765 26.192209990573 26.637158330517 47.992221009409 26.185945376913  26.65654983755 
47.999724741103 26.181395024299 26.670439566385 48.018315818992 26.170770102259 26.704518271172 48.042082769792 26.156850711715 26.748257948172 
48.043706394266 26.155857093062 26.751267998506 
POLYGONS 1 461
460 0 1 2 3 4 5 6 7 8 9 10 11 12 13 14 15 16 17 18 19 20 21 22 23 24 25 26 27 28 29 30 31 32 33 34 35 36 37 38 39 40 41 42 43 44 45 46 47 48 49 50 51 52 53 54 55 56 57 58 59 60 61 62 63 64 65 66 67 68 69 70 71 72 73 74 75 76 77 78 79 80 81 82 83 84 85 86 87 88 89 90 91 92 93 94 95 96 97 98 99 100 101 102 103 104 105 106 107 108 109 110 111 112 113 114 115 116 117 118 119 120 121 122 123 124 125 126 127 128 129 130 131 132 133 134 135 136 137 138 139 140 141 142 143 144 145 146 147 148 149 150 151 152 153 154 155 156 157 158 159 160 161 162 163 164 165 166 167 168 169 170 171 172 173 174 175 176 177 178 179 180 181 182 183 184 185 186 187 188 189 190 191 192 193 194 195 196 197 198 199 200 201 202 203 204 205 206 207 208 209 210 211 212 213 214 215 216 217 218 219 220 221 222 223 224 225 226 227 228 229 230 231 232 233 234 235 236 237 238 239 240 241 242 243 244 245 246 247 248 249 250 251 252 253 254 255 256 257 258 259 260 261 262 263 264 265 266 267 268 269 270 271 272 273 274 275 276 277 278 279 280 281 282 283 284 285 286 287 288 289 290 291 292 293 294 295 296 297 298 299 300 301 302 303 304 305 306 307 308 309 310 311 312 313 314 315 316 317 318 319 320 321 322 323 324 325 326 327 328 329 330 331 332 333 334 335 336 337 338 339 340 341 342 343 344 345 346 347 348 349 350 351 352 353 354 355 356 357 358 359 360 361 362 363 364 365 366 367 368 369 370 371 372 373 374 375 376 377 378 379 380 381 382 383 384 385 386 387 388 389 390 391 392 393 394 395 396 397 398 399 400 401 402 403 404 405 406 407 408 409 410 411 412 413 414 415 416 417 418 419 420 421 422 423 424 425 426 427 428 429 430 431 432 433 434 435 436 437 438 439 440 441 442 443 444 445 446 447 448 449 450 451 452 453 454 455 456 457 458 459 

CELL_DATA 1
FIELD FieldData 6
ClosedSection 1 1 int
1 
SectionArea 1 1 double
        14.0998 
SectionLength 1 1 double
        13.8914 
SectionMinSize 1 1 double
        1.85589 
SectionMaxSize 1 1 double
        2.58989 
SectionShapeFactor 1 1 double
       0.716591 
