# vtk DataFile Version 4.2
vtk output
ASCII
DATASET POLYDATA
POINTS 530 double
16.671658706677 36.291270620647 38.551333400518 16.671444209044 36.292912867348 38.545472838359 16.669122174236 36.308017720813 38.497396620657 
16.668807926404 36.309910860874 38.491758605909 16.666925693363 36.320240680879 38.463791554853 16.665331383084 36.328914417327 38.440539154984 
16.664884562426  36.33120459326 38.434831388204  16.66081845391 36.351106731792 38.388286158169 16.658740158276 36.360988599287 38.366166421559 
16.655477298805 36.375941621048 38.334665208917 16.650921392613 36.396446596385 38.292829195428 16.649585075744  36.40228016311 38.281597706621 
16.646704876663  36.41480629896 38.257660964455 16.643315377166   36.4295269051  38.22960939755 16.641863004556 36.435854562488 38.217474567956 
 16.63690823825 36.457005485397 38.178582216066 16.632921176926 36.474151465264 38.146561538476 16.630508765745 36.484386850549 38.127985926836 
16.624639731877 36.509548232582 38.081298330211 16.624311295958 36.510944347062 38.078754274153  16.62322684665 36.515602556566 38.070075726005 
 16.61821960892 36.537053128559 38.030336573833 16.616795368511 36.543213095683 38.018696193775 16.612450058133 36.561890667075 37.983850243445 
16.609224296683 36.575929298278 37.956986264771 16.606959946671  36.58575110096 37.938317026686 16.602334333174 36.606137042248 37.898328685536 
 16.60151513148 36.609745500976 37.891257716027 16.601127082773 36.611486377391 37.887726715625 16.596304808466 36.633142996457 37.843716090677 
16.593792280205  36.64476721086 37.818827701974 16.590776281912 36.658990006514 37.787404140051  16.58884948147 36.668387447341 37.765540712363 
16.585471347726 36.685510068322 37.723491420164 16.584885171226 36.688654984849 37.715195983459 16.583556654067 36.696437675429 37.692629739332 
16.581888598429 36.706212045768 37.664281119363 16.581416891124 36.709466204378 37.653447231614 16.580009532788  36.72092740442 37.611050843708 
16.579526649174 36.727471543238  37.58149096608 16.579436733266 36.732196221807 37.555831732451 16.580056068129 36.738699771389 37.508109351357 
16.580304862307  36.73957083309  37.49894970398  16.58164998916 36.741045172889 37.468024501192 16.582826383786 36.742276786875 37.441310723899 
16.583331390024 36.742244827374 37.433065978916 16.587044909769 36.740005841641 37.383958847441 16.589687370752 36.737375089531 37.354979574634 
16.592611799874 36.733694538138 37.327329096725 16.598604009624 36.725237064582 37.275938140033  16.59887414371 36.724845851573 37.273678546113 
16.599043632076 36.724581332893 37.272370406446 16.606299353214 36.712160742484 37.222673728727 16.611254056001 36.703188298496 37.191558898228 
16.614512785889  36.69686195532 37.173538389397 16.624021702532 36.677541618333 37.125899615482 16.624405520176 36.676725507406 37.124185197688 
16.625962013866 36.673341605436  37.11766002488 16.636203489092 36.650980200472 37.075276621004 16.638794469972 36.645277130565 37.064817825564 
16.649368652949 36.621330120512 37.025996472363 16.655739877753  36.60684796283 37.002912844994  16.66330681752 36.589284518258  36.97758578881 
16.674188215325 36.564083209238  36.94084743847 16.677575947002 36.556139055334 36.929973931614 16.687233020983 36.533545732858 36.898677263915 
16.692049383761 36.522239644112  36.88328630974 16.693759782752 36.518233627011 36.877768726589 16.706612108811 36.487932385951 36.837452998801 
16.713575399655 36.471519689615 36.815585635981 16.721098275586 36.453685876643 36.792548215872 16.732774221474 36.425969178598 36.757008765253 
16.735510765307 36.419443751044 36.748847890115 16.744528582577 36.397932382181 36.722000670791 16.749942528184 36.384978214059 36.706110183834 
16.751668809183 36.380848600346 36.701038030485 16.764197859169 36.350766022502 36.664860733117 16.770628521215 36.335329834167  36.64626937397 
16.778907734924 36.315376533033 36.622792732381 16.792879110513 36.281708638294 36.583153545308 16.794992192158 36.276596017484 36.577276594563 
16.799526673392 36.265627765729 36.564648130479 16.813167489027 36.232486942439 36.527496049293 16.817536492909  36.22181804375 36.515908535564 
16.824385913035 36.205100954974 36.497691461238 16.838191710031 36.171467621677 36.460617074447 16.852338942754 36.136910459648 36.423154834635 
16.857374306282 36.124687168034 36.409381356657 16.874998249131 36.081899287347 36.361207898929 16.876628305303 36.077932849909 36.356803698696 
16.877024987686  36.07696405308 36.355752288805 16.895477700488 36.032357352887 36.304202329299 16.899743923955 36.021957956472 36.292780963034 
16.914853249704 35.985371472317 36.250927161654 16.920823774542 35.970765004316  36.23524574636 16.934704213826  35.93696723196  36.19787087437 
16.940868459991 35.921771981472 36.182340912895 16.953884078708 35.889820811722  36.14878450934 16.960387026575 35.873673121004 36.133076799039 
16.971623848966 35.845863891211 36.105398162674 16.978865465496 35.827755037323 36.088635990743 16.988309958673 35.804179371096 36.066534282818 
16.995988142751 35.784821373516 36.049666604511 17.004867738947 35.762434528194 36.030158965338 17.010967610806 35.746960955707 36.017303339534 
 17.02774257671 35.704346426419 35.982302642777 17.028403345861 35.702656193563 35.980990861602 17.032196891233 35.692932422291 35.973574563833 
17.048170501933 35.652012896973 35.942204577775 17.050585839323 35.645826986344 35.937452861177 17.070811578024 35.593482926206 35.900789789396 
17.073559238625 35.586379653597 35.895765131813 17.093600358811 35.534110087526 35.861755079693 17.096340195364 35.526968839625 35.857079305859 
17.115949050564 35.475463411768 35.825891015323 17.118763483434 35.468073781999 35.821398070551 17.138214583774 35.416658648725 35.792323620448 
17.141115629465 35.408984567895 35.788020295906 17.160091283527 35.358502235621 35.761518733931 17.163111468485 35.350451938912 35.757389680995 
17.181639870391 35.300789606807 35.733638890216 17.184615457298 35.292796409525 35.729925933605 17.203013945146 35.243116893714 35.708442166393 
17.205455095476 35.236507682475 35.705692988867  17.22461964881 35.184362419901 35.685598121276 17.225721403561 35.181358894314 35.684475859328 
17.235425335145 35.154783867195 35.675286059478  17.24596845491  35.12591122643 35.665298237678 17.247287102218 35.122283014992 35.664147097044 
17.266150286633 35.070341622918 35.647910069594 17.271300492567 35.056093224077 35.643861263694 17.286441030992 35.014171471464 35.632156431348 
17.296815955367 34.985298350687 35.624978520224 17.306661252074  34.95787319571 35.618316339376 17.324432738714 34.908073157614  35.60798993636 
17.326582448237 34.902044754162 35.606766068603 17.330680614166 34.890481083797 35.604842406257 17.346295734207 34.846428675398 35.597465010277 
17.355123527603 34.821369010673   35.5941867093 17.365816363492 34.791002301843 35.590288833576 17.380860045737 34.748013814688 35.586332659711 
17.385312585911 34.735294591396 35.585137274201 17.388721736636 34.725497572303 35.584557521772 17.404778362626 34.679346264697 35.581877035836 
17.424067125326 34.623585694986 35.580491805085  17.42469335692 34.621775968822 35.580443359439 17.425270164629 34.620100327158 35.580449002123 
17.444949170077 34.562935963652 35.580620427079 17.463452706338 34.508900198822 35.582425409635 17.465355151309 34.503346189977 35.582601276142 
17.468591158195 34.493836382483 35.583260221862 17.485200109955 34.445040510024 35.586563853186 17.492585712791 34.423216408833 35.588755752623 
17.504898763246 34.386791433828 35.592642852872 17.520633059325 34.339979762388 35.599138111564 17.524030193808 34.329876845193 35.600517369769 
17.529085410685 34.314750210255 35.603102473151 17.543443311683 34.271812308538 35.610301075627 17.550661462854 34.250100043577  35.61464482083 
17.564034990265 34.209857566224 35.622777740767  17.57210676186 34.185439338653 35.628429995023   17.5820133983 34.155486804323 35.635272758282 
17.592636834638 34.123218573428 35.643464088435 17.597907907806 34.107234636319 35.647374808046 17.604313703987 34.087735635055 35.652553621455 
17.614974050095 34.055218879564 35.661557582938 17.632744903462 34.000701575057 35.678359054442 17.633524032272 33.998314973714 35.679074960399 
17.633887795781 33.997198494815 35.679421914193 17.653060234869 33.938033968835 35.699545818253 17.659357886838  33.91859414837 35.706189337391 
17.671708706976 33.880288826488 35.720255281914 17.683870180044 33.842574993243 35.734081210677 17.689410249067 33.825322117617 35.740796956812 
17.703540587622 33.781363034304  35.75766382014 17.706727633679  33.77146214107 35.761388078055 17.708046911967 33.767368366629 35.762902705198 
17.723780929573 33.718344153486 35.782121454132 17.732536939356 33.691080845232 35.792708900192 17.740717649108  33.66550080639 35.803221692422 
17.756671900862 33.615619102303 35.823694077103 17.757231884099 33.613859776859 35.824461575223 17.758374314547 33.610269255313 35.826034801704 
17.773479775538 33.562968899202 35.845834420997 17.780583306321 33.540723664422 35.855154948434 17.788793926803 33.514885890576 35.866650130956 
17.802597783996  33.47147980791 35.885786974647 17.802925309103 33.470455075556 35.886211334021 17.803107863365  33.46988618412 35.886434820065 
17.817055235715 33.426133454445 35.905169128776 17.822743187604 33.408377688805 35.912307609844  17.83115957106 33.381893230015 35.924086126726 
17.840812289263 33.351686630204 35.936627241258 17.845567774615 33.336695340232 35.943436777407 17.858895820204 33.294953333588 35.960948856619 
  17.8604962495 33.289904144914 35.963263341985 17.868669274427 33.264307489671  35.97399991231 17.875751608843 33.242178335674 35.983006910548 
17.877266320052  33.23748797356 35.984689293596 17.891399601133 33.193392860603 36.002289015956 17.896437369497 33.177812435656 36.007773953346 
17.907363309745 33.143767386935 36.021130621389   17.9162235077 33.116406262964 36.030541480991 17.923580028016 33.093520136282 36.039323838434 
 17.93659342825 33.053365992699 36.052959428757 17.939983399037  33.04282560707 36.056973044283 17.953079609898  33.00239418325 36.070820491161 
17.956513215106 32.991833568737 36.074222142093 17.957519938821 32.988756911876 36.075106327997 17.973129052335 32.940620123337 36.091308325111 
17.979034330253 32.922482970844 36.097012083526  17.98975309488 32.889253926965 36.109135655053 18.000399180349 32.856325687595 36.120743047824 
18.006351183557 32.837735119107 36.128273440806 18.021113406122 32.791650005051 36.146815804204 18.022844554941 32.786190373147 36.149308045382 
18.031152486854 32.759977901338 36.161333076456 18.039283811856 32.734442012592  36.17241629368 18.041079199009 32.728803635654 36.174863928014 
18.055558089325 32.682697077873 36.198258326261 18.059945331824 32.668710108096 36.205440414758 18.071648996535 32.630685384469 36.228694243989 
18.077430502328 32.611838575433 36.240543212857 18.087398034073 32.578769537944 36.264284928293 18.093967562461 32.556872840458 36.280514287338 
18.102598518782 32.527595461152  36.30476678341  18.10974303488 32.503183979192 36.325855990712 18.116950591413 32.478139267387 36.349533199401 
18.124142145884  32.45213824588 36.378974846136 18.129238205035 32.433632923015 36.400300757852  18.13575895335 32.408080439053 36.438359613224 
18.139145566552 32.394857024264 36.457852715887 18.144413662788 32.372342378852 36.499355034152 18.147197780979 32.360570719101 36.520558227633 
18.151085835864  32.34209883495 36.561853293866 18.153980587683 32.328690632493 36.590617731858 18.156802371548 32.314296364161 36.626268412543 
18.159832269578 32.298944141159 36.663952527198 18.161866531435 32.286303998205 36.702663184321 18.163776940802  32.27595804931 36.730252694755 
18.166489517191 32.259186008435 36.781394704434 18.167259974236 32.255021216287 36.792477307905 18.169233250096 32.243362189864 36.826565841493 
18.170761685602 32.234678138927 36.850976972737 18.171158595666 32.232079636281 36.859290161111 18.174468268476 32.214094848702 36.907438237037 
18.176182293225 32.203573863813  36.93931157014 18.177973313478 32.194153492078  36.96357296398 18.181153521297 32.176033826632 37.014657135987 
18.181483689682 32.174203140203 37.019670423491 18.181620078317 32.173381123886 37.022119499375 18.185756791794 32.152146689476 37.075145076004 
18.188033382524 32.139790792257  37.10817731447 18.190074063158 32.129969821403 37.130574773167 18.193307032796 32.113770395342 37.169739823211 
18.194635658481 32.107208746403 37.185285072472  18.19528794524 32.103778787595 37.194115712189 18.199597675241 32.083391918824 37.239381424702 
18.202681632876 32.067800004215 37.277541166349 18.204325206135 32.060184880797 37.293885916502 18.206928869645 32.047155572244 37.325330487315 
18.208859042008 32.037607913324 37.348001170112 18.209650231632 32.033220464795 37.360017695406 18.213061768805  32.01597023234 37.402243067525 
18.215689667998 32.001215579698 37.443201325903 18.216546536771 31.996785561224 37.454366392016 18.217735886213 31.990039273033 37.473297539786 
18.219802757013 31.978678034268 37.504112151769 18.220766786927 31.972796091984 37.521835131978 18.222836427526 31.961359041833  37.55303931984 
18.224808056823 31.949669032347 37.587333441071 18.225892292697 31.943733524879  37.60335812564 18.228461775546 31.928261615756 37.649414506474 
18.228871336193 31.925949105189 37.655872527351 18.230917580656 31.912815048167 37.697222472314 18.231593367293 31.908516843844 37.710652030853 
18.231667445054 31.907914619703 37.712877584277 18.233853026328 31.892349248387 37.765878483913 18.234120591247 31.889521111706 37.777670475969 
18.235346820662 31.878524512834 37.820419103946 18.235716773843 31.873397838927 37.843715443662 18.236296832811  31.86653755606 37.873470842521 
18.236782747296 31.857698131591 37.916174633348 18.236907377968 31.855680625425 37.925692246142 18.236982476382 31.852893028881 37.940463424321 
18.237140504584 31.845792653308 37.978642620049 18.237062465881 31.841227101603  38.00619024232 18.236972377827 31.836526059241 38.034717837011 
18.236525362866 31.830700109758 38.075669030971 18.236301127868 31.828285104986 38.093294179231 18.235987156878 31.826858693394 38.106734056611 
 18.23495053895 31.821921283882 38.152417829137 18.233035721727 31.817102757807 38.212075188719 18.233009520039 31.817036578331 38.212892924359 
18.232964799516 31.816978197524 38.213974905281 18.230285830809 31.814247371612 38.274384629711  18.22808380727 31.813291016291 38.316633642016 
18.227135459403 31.812892451555 38.334752558061 18.224505145421 31.813009026345 38.377981900823 18.223498257886 31.813122314991 38.394135433637 
18.223155427897 31.813281394334 38.398942734594 18.218600020999 31.815664223111 38.461273929076 18.218418823034 31.815806219968 38.463481819165 
 18.21764081915 31.816463548668 38.472687898597 18.213203111362 31.820244859537 38.525015511967 18.212100657601 31.821234338273 38.537727231018 
  18.2068529879 31.827326325354 38.590289994691 18.204928963435 31.829583947396 38.609423635069 18.198976153592 31.838065767221 38.660017059214 
18.196964356165 31.840965167128 38.676926341235 18.190038606039 31.852155139446 38.728190095109 18.188447206422 31.854771336697 38.739711008428 
18.180011930137  31.86963199746 38.795067457222 18.179349998743 31.870813356775 38.799323906285 18.175092359568 31.878791646251 38.824519786456 
18.169544070123 31.889218860003 38.857178698729 18.168543480284 31.891182476754 38.862590474024 18.159048864556 31.909889735137 38.913514863459 
18.155641530229 31.916834778487 38.930458943144 18.147893415751 31.932662879589 38.968785431706 18.141235836747 31.946646295217 38.999515289255 
18.136188791863 31.957267230137 39.022694908183 18.125339278036 31.980605879307 39.069608659947 18.124019632859 31.983449991366 39.075283866621 
18.120024418021 31.992215626883 39.091573855703 18.111422854674 32.011119615106 39.126462453138 18.108447309637 32.017772262816 39.137880888375 
 18.09842934348 32.040229074717 39.175985516623 18.091228929674   32.0566139917 39.201970109956 18.085096684879 32.070613486692 39.223839799867 
18.073684849669 32.097008685358 39.262567956973 18.071451296225 32.102190381278 39.270058481024  18.06386061781 32.120003560761 39.294346124651 
18.057427482707 32.135142023028 39.314690243243 18.055399604469 32.139965756331 39.320805840107  18.04306120409 32.169369270097 39.357704843396 
18.035958402074 32.186450859456 39.378055477403 18.028454281705 32.204530584751 39.399366238312 18.015285778495 32.236512670847 39.435296533775 
18.013728548188 32.240302315548 39.439501579977 18.010053809138 32.249313436852 39.449031704592 17.998865509085 32.276840803237 39.477520809454 
17.994065284924 32.288717525183 39.489362116002 17.984397313556  32.31267403076 39.513004372412 17.974056995223  32.33841364126 39.537617764601 
  17.9704691464 32.347352987121 39.546110309335 17.956112543787 32.383289005604  39.57914051024 17.955800498326 32.384069876989  39.57985963823 
17.942198274984 32.418256862444 39.610353735633 17.939325812262 32.425477237884  39.61678815045 17.939264343499  32.42563218264 39.616923350053 
17.920661082001 32.472534899534 39.657787240341 17.920371410074 32.473267145291 39.658412483449  17.90036367641 32.523858197639 39.701514291895 
17.898941586019 32.527460888409  39.70453858539 17.880321142344 32.574665752797 39.743952341956 17.874235324103 32.590115464907 39.756710577228 
17.861643735518  32.62215611666 39.782675603686 17.847474766464 32.658284885592 39.811466203627 17.843521319178 32.668398623278 39.819309505944 
17.833623345492 32.693777998854 39.838611062241   17.8255993171 32.714354683642 39.854245171939 17.822651604105 32.721931442587 39.859886822437 
17.807412426631 32.761263118405 39.888127034069 17.797816853213 32.786055194761 39.905757685258 17.788802238487 32.809458363808 39.921676401497 
17.772396540945 32.852008226422 39.950885812305 17.769917223642  32.85845306762 39.955216874505 17.763327846799 32.875541762968 39.966957684185 
 17.75099743089 32.907562119491 39.988680452382 17.746427781896 32.919394099388  39.99693070076 17.732161095883 32.956355508201 40.022565731601 
17.719763948458 32.988360960537 40.045487914047 17.713376502609 33.004877820839  40.05714573694 17.700280152335 33.038702797542 40.081277917207 
17.694662639952 33.053235286876 40.091492884939  17.69196899179 33.060206276061 40.096376518497 17.675882346048  33.10200967161 40.124552092807 
17.664099019063 33.132746834683 40.144520508135  17.65681724169 33.151830146021 40.156351268263 17.641159119628 33.193074404765 40.180589067781 
17.638146272261 33.201015383516 40.185224074224 17.636383187973 33.205687820861  40.18779003486 17.619930374267 33.249484459174 40.210618689766 
17.607588182643 33.282570271299 40.226413198595 17.601204492487   33.2996520346 40.234760982866  17.58535226486 33.342380205332 40.253708070654 
17.581839272163 33.351841158728 40.257952807977 17.563220429801  33.40228608201 40.278714292121  17.56194764533 33.405734026638 40.280136257657 
17.551785944024 33.433450049636 40.290407114394 17.542081031787 33.459932838103 40.300143516998 17.540791095137 33.463479060026 40.301286800269 
17.521829862183 33.515532039243 40.318518779464 17.517293721012 33.528074784408 40.322123939087 17.501860318466  33.57064554513 40.334985785055 
 17.49308337837 33.595035896719 40.341262914103 17.482460199022 33.624503524517 40.349166620718 17.468786703344 33.662654933617 40.358060668026 
17.464647601274 33.674197484752 40.360788951664 17.454652837174 33.702233173077 40.366436053086  17.44802015625 33.720858967555  40.37006355352 
17.445239178828 33.728719712512 40.371289917196 17.431633827019 33.767167995251 40.377340071012 17.424223187764 33.788249290671 40.379836059597 
17.414789014762 33.815069347777 40.383115076352 17.404018247339 33.845907586906 40.385603013744 17.397124480477 33.865625816586 40.387308105561 
  17.3833347119 33.905369114126 40.388991722781 17.378466318445 33.919387405734 40.389659904496 17.362441870471 33.965885739778 40.389808456237 
17.359106064704 33.975557995424 40.389881299589  17.34137447943 34.027391941239 40.387849794501 17.339193468605  34.03376367351 40.387622442516 
17.320257570643 34.089512873678  40.38318378122 17.318889171947  34.09354187934 40.382861289675 17.299221346749 34.151890757097 40.375694063207 
17.298494227525 34.154049361197 40.375420773397 17.278386566598 34.214167125089   40.3654258483 17.278165371393 34.214829458527 40.365310119471 
17.268487202776 34.243996561175 40.359169339169 17.258201099665  34.27499477587 40.352648691975 17.257978736537 34.275668617877 40.352486298311 
17.238720071666 34.334182982112 40.337538955801 17.238059375324 34.336200335134 40.336969064634 17.219780419337 34.392148428542 40.320422815923 
17.218624235731 34.395703907969 40.319280567575 17.201415445606 34.448747208085 40.301571705194 17.199623967928 34.454293589294 40.299587661807 
17.183574637917 34.504077790016  40.28126261657 17.180951595619 34.512249403275 40.278066037972 17.166283701786 34.558015773924 40.259781647894 
17.162483187488  34.56992389298 40.254757486594 17.149583268843 34.610390366998 40.237432470524 17.144181731674 34.627406837858 40.229763630022 
17.133918190206   34.6597417807 40.215182223079 17.126717776603 34.682512148515 40.204459914477 17.119605907242 34.704995607711 40.193909118363 
 17.11113388755 34.731852223581 40.180919807615 17.107825360434 34.742332249439 40.175893891027 17.099233645874 34.769566417859 40.162731897679 
17.092587725058 34.790612796111 40.152665592782 17.084889622913 34.815036950509 40.140742790979 17.075674660737 34.844197164857 40.126910774605 
17.069270545244 34.864507419718 40.117040402408 17.058111025637 34.899786916707 40.100485880714 17.052865208059  34.91641480493 40.092451883231 
17.040385816878  34.95582501373 40.074180300978 17.036121477557 34.969336671729 40.067679319934 17.022075991265 35.013626385343 40.047495652081 
17.018985795134  35.02340363985 40.042865725853 17.002015616202  35.07686362176 40.018779180779 17.000718250416 35.080967084446 40.016843144774 
16.988950002908 35.117992247999 40.000413183129 16.981329313244 35.141953631385   39.9898586296 16.980542572554 35.144409884861 39.988869367826 
16.960151740429 35.208513138564 39.960689847868 16.959798498103 35.209615137026 39.960250538492 16.957461000384 35.216973171858 39.956965144064 
16.939541595078 35.273343195015 39.931992585999 16.936380320188 35.283348870086 39.927235871278 16.919582012329 35.336055838302 39.904609543439 
16.912427429704 35.358602635027 39.894407527028 16.899924905889 35.397590532589 39.878949689384 16.888306045526  35.43391650124 39.864045819341 
16.880229553952   35.4588666688 39.855414472461  16.86311526397 35.511769156181 39.836937884381 16.860292539742 35.520398873759 39.834440539579 
16.850974006049 35.548962215729 39.825768246958 16.839960263603 35.582665612658 39.815840974584 16.836523869823 35.593223227546 39.812503107848 
16.818814876308 35.647006017021 39.798891581485 16.808391850185 35.678924786852  39.78936432455 16.796881269665 35.713697983629 39.781579424865 
16.782345708808 35.758259829906 39.768010654536 16.773840093605 35.783933557144  39.76238190714 16.761036135903 35.822986472068 39.751581194114 
16.752023588641 35.850117910555  39.74603336937 16.741243072782 35.882779733526 39.738201096325 16.733923612436 35.904703407473 39.734332894343 
16.718247902662 35.951943058594 39.724399590351 16.714933205543 35.961944078984 39.722230223038 16.712351669341 35.969867385157 39.719768313562 
16.695502042322 36.020828062453 39.708037083556 16.680275584462 36.067158694655 39.695831358947  16.67546350005 36.082038452997 39.690607593011 
16.668139052822 36.104822994048 39.681873908535 16.656106574108 36.141537720726 39.671638471938 16.647225940757 36.169047303771 39.661715255379 
16.638521974601 36.196773933976 39.647595794387 16.625709768278 36.239334776212  39.61676735537 16.623927810433 36.244983585458 39.614035617918 
16.622503429503 36.249698038582  39.61070715081 16.612230521007 36.286340496318  39.57152023785 16.609335007233 36.298128044792 39.552084880301 
16.607989719391 36.310118894496 39.505607844571 16.608179758638 36.311289247396 39.495708324841 16.609432156141 36.309566562813 39.484708920507 
 16.61094432937 36.312768828344 39.441062725782 16.613818056161 36.310177370823 39.407997781756 16.615960498967 36.307452367936 39.387905526509 
 16.61796866352 36.304000848072 39.374230749707 16.621308566477 36.301077579456 39.335292830947 16.627288668115 36.292429474247 39.285199806586 
16.627598790289 36.291935262293 39.282864910134  16.62780868808 36.291542575278 39.281619122694 16.633698281371 36.283432816324 39.229941971863 
16.638148631576 36.276068674428 39.197999338364 16.640192273232 36.273884914934 39.176444707819 16.644522994018 36.267791096465 39.139196187211 
16.646632056015 36.264609030598 39.122288487932 16.647819547466 36.262673916325 39.113593510678 16.652490477159 36.257154414022  39.06736549497 
16.656646445248 36.251879904477 39.028323751397 16.657949395384 36.251006783088 39.011596900625 16.660413356545 36.249140742611 38.981200797378 
16.662661078731 36.247157623384  38.95508671405 16.663836438782  36.24617054227 38.941144419142 16.666505553712  36.24596628288 38.897771552177 
16.669174118015 36.246032664337 38.852852090471 16.669693158469 36.246808085226 38.839731873735 16.670711922349 36.248676460495 38.811988490083 
16.671924949563 36.250560151789 38.780914841246 16.672412220766 36.251632485375 38.766618038805 16.673222907692 36.257156228159 38.721334465604 
16.673676744944 36.262145819827 38.685077229341 16.673634248625 36.266332275054 38.661720559374  16.67327532575 36.276267114773 38.610600283383 
  16.6731539802 36.277596443847 38.604983842995 16.672516739328 36.283464997208  38.58188377795 
POLYGONS 1 531
530 0 1 2 3 4 5 6 7 8 9 10 11 12 13 14 15 16 17 18 19 20 21 22 23 24 25 26 27 28 29 30 31 32 33 34 35 36 37 38 39 40 41 42 43 44 45 46 47 48 49 50 51 52 53 54 55 56 57 58 59 60 61 62 63 64 65 66 67 68 69 70 71 72 73 74 75 76 77 78 79 80 81 82 83 84 85 86 87 88 89 90 91 92 93 94 95 96 97 98 99 100 101 102 103 104 105 106 107 108 109 110 111 112 113 114 115 116 117 118 119 120 121 122 123 124 125 126 127 128 129 130 131 132 133 134 135 136 137 138 139 140 141 142 143 144 145 146 147 148 149 150 151 152 153 154 155 156 157 158 159 160 161 162 163 164 165 166 167 168 169 170 171 172 173 174 175 176 177 178 179 180 181 182 183 184 185 186 187 188 189 190 191 192 193 194 195 196 197 198 199 200 201 202 203 204 205 206 207 208 209 210 211 212 213 214 215 216 217 218 219 220 221 222 223 224 225 226 227 228 229 230 231 232 233 234 235 236 237 238 239 240 241 242 243 244 245 246 247 248 249 250 251 252 253 254 255 256 257 258 259 260 261 262 263 264 265 266 267 268 269 270 271 272 273 274 275 276 277 278 279 280 281 282 283 284 285 286 287 288 289 290 291 292 293 294 295 296 297 298 299 300 301 302 303 304 305 306 307 308 309 310 311 312 313 314 315 316 317 318 319 320 321 322 323 324 325 326 327 328 329 330 331 332 333 334 335 336 337 338 339 340 341 342 343 344 345 346 347 348 349 350 351 352 353 354 355 356 357 358 359 360 361 362 363 364 365 366 367 368 369 370 371 372 373 374 375 376 377 378 379 380 381 382 383 384 385 386 387 388 389 390 391 392 393 394 395 396 397 398 399 400 401 402 403 404 405 406 407 408 409 410 411 412 413 414 415 416 417 418 419 420 421 422 423 424 425 426 427 428 429 430 431 432 433 434 435 436 437 438 439 440 441 442 443 444 445 446 447 448 449 450 451 452 453 454 455 456 457 458 459 460 461 462 463 464 465 466 467 468 469 470 471 472 473 474 475 476 477 478 479 480 481 482 483 484 485 486 487 488 489 490 491 492 493 494 495 496 497 498 499 500 501 502 503 504 505 506 507 508 509 510 511 512 513 514 515 516 517 518 519 520 521 522 523 524 525 526 527 528 529 

CELL_DATA 1
FIELD FieldData 6
ClosedSection 1 1 int
1 
SectionArea 1 1 double
        18.9187 
SectionLength 1 1 double
        15.9012 
SectionMinSize 1 1 double
        2.22818 
SectionMaxSize 1 1 double
        2.68754 
SectionShapeFactor 1 1 double
       0.829079 
