# vtk DataFile Version 4.2
vtk output
ASCII
DATASET POLYDATA
POINTS 912 double
63.551589554945 31.247160586635 40.539684395068 63.599935005706 31.224338947326  40.53594117868 63.608862979538  31.22012598454 40.535250574574 
 63.60963084207 31.219772342734  40.53519494323 63.662195415536 31.194997048852 40.531141499137 63.684002376133 31.184941006255 40.529556066911 
63.713779502299 31.171015292726  40.52730708554 63.742052588451 31.157931650486 40.525231718514  63.76737799134 31.146455599787 40.523478113404 
63.800621535741 31.131501495538 40.521223839163 63.821792468809 31.121855161555 40.519735027368 63.838157981011 31.114428477433  40.51859717785 
63.876406898192 31.097520858732 40.516132483236 63.930415282484 31.073867099396 40.512747572244 63.931414379335 31.073438097012 40.512688662424 
63.932941845611 31.072791366195 40.512602557387 63.986737173772 31.049611603834 40.509395748625 64.023435812285  31.03402843153 40.507307559488 
64.042767959257 31.025918308734 40.506250297319  64.06962810716 31.014843576742 40.504865074254 64.099206544136 31.002369705777 40.503219199324 
64.122496206667 30.992676153848 40.501978743175 64.156016190017 30.978799165659 40.500225681817 64.195346012927 30.962876079458 40.498324190494 
 64.21338116431   30.9553896442 40.497372299331 64.230765821559 30.948354797545 40.496533317684 64.271005553937 30.932189888379 40.494642607398 
64.309762279889 30.917096974083 40.493027683729 64.329623775144 30.909169593718 40.492116662024 64.351883814024 30.900593082476 40.491229004814 
 64.38886320694  30.88640992401 40.489782316285 64.422935010558 30.873681699187 40.488596410491 64.447436421843 30.864386293715 40.487681986995 
64.468355434598 30.856646455848 40.486986288643 64.504475601707 30.843311447977 40.485797648994 64.554495217307 30.825080228445 40.484253416383 
64.561655455734 30.822475265401 40.484034443548 64.583335185991 30.814603399426 40.483378115015 64.619217325101 30.801498197229 40.482258731067 
64.630138138526 30.797496090981 40.481912198455 64.676826361033 30.780192204873 40.480346654023  64.70536667233 30.769542930419 40.479358707881 
64.735366630289 30.758071504435 40.478200136143 64.782182195653 30.739915148311 40.476281824048 64.795274830629 30.734694229659 40.475683352417 
 64.83854873221  30.71715756913 40.473583916545 64.854627592732 30.710593108792 40.472782845294 64.860236626843 30.708261136625 40.472485222821 
64.910825206525 30.686440227635 40.469459663723 64.957802909906 30.665621255548 40.466409622592 64.965459693248 30.662239944865 40.465917663908 
64.989081797149 30.651425657044  40.46423436244 65.018526272995 30.637848142587  40.46209386965 65.025896255787 30.634335401499 40.461508647306 
 65.06832502541 30.614033220104  40.45810516219 65.084561323571 30.606048224586 40.456709300044 65.111905934562 30.592517085833 40.454322480349 
 65.12951658746 30.583702964266 40.452742153789  65.16352562267 30.566481194472 40.449603616577 65.177186008171 30.559495149418 40.448313279404 
65.218905922801 30.537814120322 40.444223143258 65.227380280169 30.533382548837 40.443380384496 65.275226291102 30.507909778601 40.438426479145 
65.280541804247 30.505036251541 40.437857251139 65.331037260899 30.477224188444 40.432227090438 65.335644668712 30.474632600325 40.431690044003 
65.387117787775 30.445010281089 40.425400489987 65.394042114166 30.440889648279 40.424495653083 65.445527532667 30.409349006181 40.417377468149 
65.457210501191 30.401877104283 40.415626004362 65.506033479214 30.369748371875 40.407915544604 65.525667716958 30.356052584678 40.404479302669 
65.566681487986  30.32664108296 40.396954071103 65.608880158398 30.293946446457 40.388158320414 65.621439462888 30.284107267495 40.385493547086 
65.639780391956 30.268971852102 40.381270204158 65.672533516373 30.241442622745 40.373511585083 65.695791632092  30.22110005446 40.367658559273 
65.719272634693  30.20045005392 40.361700762498 65.748917221042 30.173576395926 40.353831493563 65.763120434414 30.160446649969  40.34995121638 
 65.77410479249 30.150052805094 40.346846596939 65.805369239502 30.120575799134 40.338056180608 65.842154498217 30.085338070571 40.327473091594 
65.846081262089 30.081482076277 40.326302499871 65.849426031464 30.078160467488 40.325289339749 65.885554573337 30.042375794843 40.314386236509 
65.923532702046 30.004410881316 40.302774237577 65.924057430714  30.00388729991 40.302614216697 65.924597327276 30.003344290397 40.302447712185 
65.961702240262 29.965178869295 40.290638160241 65.998657834385 29.926863229055 40.278744654901 65.998852837213 29.926656246199 40.278679817877 
65.999055432616 29.926439341809 40.278611650341 66.035189875049 29.887586074569 40.266381302087 66.069359481748 29.850253294158 40.254559707301 
66.071132684992 29.848278730315 40.253930132006 66.072895660774 29.846266578916 40.253282992474 66.106298918308 29.808208209549 40.241050163065 
66.140052534714 29.769047072884 40.228384537675 66.141083837152  29.76782696481 40.227987347312  66.14205591455 29.766660271519 40.227605759713 
66.175218777954 29.727007067117  40.21465223732 66.208765307169 29.686424431466 40.201345158914 66.209195043394 29.685906873444 40.201175693664 
66.209640878274 29.685365380473 40.200997912441 66.242847714139 29.644393418349 40.187479250686 66.274865617771 29.604576036762 40.174309423468 
66.276678815101 29.602331655228 40.173568153158 66.278584154603 29.599953471507 40.172780666876 66.310428320474 29.559710384493 40.159404566375 
66.341063524472 29.520679139002 40.146399540173 66.344513540932 29.516307942395 40.144945502697 66.348233863224 29.511555664424 40.143360836933 
 66.37866784992 29.472202048918 40.130190771682 66.407264987473 29.434974512978 40.117707778721 66.413197192988 29.427312213228 40.115144352791 
 66.41983912113 29.418691203649 40.112256064793 66.447876138336 29.381871165217 40.099878365239  66.47262022756 29.349221010117 40.088887509797 
66.482703511485 29.335942316628 40.084420102683 66.494679953903 29.320104458634 40.079085341028 66.517169084319 29.290024886709 40.068920882406 
66.535136383749 29.265762171775 40.060700124222 66.551455265213 29.243628938809 40.053191815882 66.573682916114 29.213010022756 40.042760773379 
 66.58554556845 29.196521050807 40.037129793739 66.593849825846 29.184746219949 40.033087518115 66.619039855138 29.148573038581 40.020628578671 
66.648489808821 29.105063218965 40.005534997623 66.651973944828 29.099804590621 40.003701235459 66.657342953759  29.09142013643 40.000753833974 
66.683595429629 29.050111097213 39.986207038885 66.700303037211 29.022814837216 39.976513646156 66.714124211075 28.999698972175 39.968263216065 
66.733038446336 28.966735761759 39.956397282314 66.743315671433  28.94860144902 39.949853116302 66.750755482876 28.934836059991 39.944839721262 
66.770910052589 28.896751211104 39.930914653112 66.796162131215 28.846994684802 39.912585130602 66.797274756058 28.844762248032 39.911760152315 
66.798107642076 28.843018161161 39.911111028141  66.82191117788 28.792561874313 39.892294903056 66.839420754866 28.754146473239 39.877891228167 
66.845403705394 28.740975462178 39.872950238724 66.854931796922 28.719486745604 39.864859351712 66.867617187777 28.690063615303 39.853735240979 
 66.87424354453 28.674125732227 39.847678459204 66.888690823193  28.63987314958 39.834687829514  66.90438503803 28.600835802982   39.8197846919 
66.908789743693 28.590117145728 39.815704783753 66.918472387088 28.565076782521 39.806096460103 66.927783801532 28.540487175528 39.796636114385 
66.931591647729 28.529675151373 39.792440080033 66.945568595175 28.490650953529 39.777324773686 66.956735893615 28.456124642719 39.763799572009 
66.961829512738 28.440601148574 39.757727676089 66.970355102102 28.410649068784 39.745846923917 66.976100602382 28.390211998375 39.737731283101 
66.978720311553 28.379003731312  39.73321303537 66.987392983383 28.340591633279 39.717689706343  66.99335658778 28.303771310335 39.702511566073 
66.994905405285 28.293138538748 39.698106517712  66.99827953986 28.257507197662 39.683114422259 66.999656715666 28.243119466282 39.677062567397 
66.999893810601 28.239726276579 39.675624177784  67.00176991245 28.187699480576 39.653346586377 67.001900570814 28.181286705684     39.65058791 
67.000840228407 28.132301306135 39.629254013101 67.000318951747 28.115473290591 39.621905233192  66.99814094945 28.081656829927 39.606994196974 
66.995791783569 28.051442679312 39.593620415541 66.994570652682 28.040628501107 39.588785453712 66.990696393141 28.007832503625 39.574100848964 
66.987478639599  27.98895771108 39.565524201401 66.982527216106 27.959058999479 39.551956799939 66.976076232337 27.929715404244 39.538439395853 
66.971255011605 27.906318688283  39.52770237661 66.961318669461 27.865931039926 39.508963279325   66.9577605538 27.850246720345 39.501724190921 
66.944499437673 27.798683356383 39.477726793303 66.942610338329  27.79059613992 39.473987235806 66.926762898698 27.729591727171  39.44557593108 
66.926435400118 27.728180536064 39.444923663148 66.910868581412 27.668980857568 39.417328992672 66.909758855374  27.66412826557 39.415088155667 
66.897183918209 27.614754820506 39.392125539039   66.8936387762 27.599713966217 39.385166568556 66.884771266247 27.564458535501 39.368784133723 
66.880951173073 27.548616943336 39.361443747101 66.869372949862 27.502999973175 39.340233264488 66.867646167463 27.495840202298  39.33691566913 
66.860308839905 27.466654067982 39.323353964335 66.853443878545 27.439660239112 39.310800948249 66.851476541087 27.432213603174  39.30732868876 
66.838837616196 27.381882566812 39.283943538273 66.829014643627 27.342994837012 39.265867942213 66.825412326178 27.328336413654 39.259067222606 
66.821007998911 27.310461674287  39.25077283409 66.812167890383 27.275909823745 39.234698363417 66.805550117011  27.24980897397 39.222563160496 
66.799552945451 27.224999050951 39.211065362983 66.788808347806 27.180369203739  39.19038783382  66.78690155468 27.172654202652 39.186807115015 
[...]
CELL_DATA 1
FIELD FieldData 6
ClosedSection 1 1 int
1 
SectionArea 1 1 double
         56.654 
SectionLength 1 1 double
        27.7301 
SectionMinSize 1 1 double
        3.26708 
SectionMaxSize 1 1 double
        5.20269 
SectionShapeFactor 1 1 double
       0.627959 
