# vtk DataFile Version 4.2
vtk output
ASCII
DATASET POLYDATA
POINTS 178 double
41.242666080209 27.956734545654 37.855003450532 41.286547846569 27.937422922475 37.812906098916 41.312223580462 27.927138387421 37.788783006932 
41.334424032119  27.91566301648 37.766630806638 41.379131216501  27.89586336789 37.723679080311 41.382639570306  27.89399132214  37.72014899605 
41.402655528015 27.885617003046 37.701164623461  41.43195497585 27.872907327199 37.673149070449 41.436312377654 27.871398287369 37.669173590787 
41.483509771567 27.852958723773 37.625063569698  41.48817486349 27.851422482882 37.620847133169 41.533079950341 27.835153219229 37.579518209811 
41.538391157552 27.833623361533  37.57482761046  41.58165898903  27.82100681683 37.536538636476 41.590386190003 27.819189616699 37.529180258389 
41.631915612529 27.810694761601 37.494240961168 41.648824298315 27.808903758654 37.480851085222 41.684185462471 27.805963551535 37.453252346852 
  41.7305655612 27.809208202154 37.420611754558 41.735802738846 27.809593433877   37.4169354688 41.741746009699 27.810922695779 37.413210546685 
41.788754105078 27.820573977367 37.383316234955 41.839680050364 27.840473133575 37.355662385249 41.842085905693 27.841331527622  37.35431502392 
41.845324328934 27.843205547896 37.352861460078 41.894691446135 27.871265879199  37.33044872819 41.915262723558 27.888948782801 37.324110913721 
41.950034554822 27.920210611342 37.314085652371 41.964996852863 27.936353794468 37.311120322332 42.001341757002 27.977809996499 37.305041076983 
42.006921006835 27.984944908823 37.304494214237 42.022294639908 28.006345332097 37.303859297676 42.044187901598 28.035231451521  37.30215852189 
42.052020228809 28.046086809003 37.301811298751 42.079270645636 28.088141944037  37.30275133583 42.097524355352  28.11938904399 37.304922572855 
42.112355159939 28.153387939008 37.311001590812 42.126384398889 28.183388770251 37.315669456726 42.139480156965 28.220440173386 37.324559918269 
42.148974923137 28.243971926569 37.329336385675 42.161307323018 28.285587037973 37.341077627491 42.167263739894 28.301859757395 37.344830909269 
42.179340612806 28.348260685787 37.359159031678 42.183054285568 28.359049718173 37.361821508464 42.194691037934 28.409039848594 37.378273288724 
42.196753319645 28.415799677918  37.38013687605 42.207054093591 28.468784202514 37.399076141449 42.207970003238 28.472293516013 37.400157909546 
42.216714082437 28.527919858471 37.421571059101 42.216769849387 28.528172225232 37.421656314257 42.217260322116 28.532125444049 37.423274836152 
42.224253413331   28.5836267492 37.443914659276  42.22442454944  28.58643849749 37.445197140908 42.231154454051 28.638707488132 37.466416085269 
42.231440851978 28.644650160832 37.469182263254  42.23699871714 28.692804027298 37.489205111131 42.237314507749 28.703519910032 37.494341348929 
 42.24148826493 28.745891276289 37.512489286063 42.241523833177 28.764184732256 37.521629552166 42.244090812452 28.797795789743 37.536574960993 
42.242926684508 28.828257753908 37.552699019488 42.243687259191 28.848633358885 37.562346968101 42.238679496342 28.896844649939 37.590204662219 
42.238667110836 28.897328967591 37.590456496316 42.238492890089 28.898184609859 37.591013961684 42.232905618478 28.947116743631 37.619661009283 
42.225729040836  28.96902638826 37.635941747176 42.220173390977 28.992132470047 37.651624429753 42.204032477674 29.020418949438 37.677723501594 
42.199800850109 29.030558351747   37.6859305872 42.196294024485 29.035804429997 37.691150213619 42.175804126878 29.067014408692 37.721927308089 
42.158987368555 29.088053528627 37.744894175611 42.147891780853 29.100244630366 37.759200547889 42.124710511804 29.121038488259 37.786746731135 
42.116094080608  29.13042306076 37.797815154178 42.111893495731 29.134151939663 37.802787098936 42.081485313044 29.158790822025 37.837599330437 
 42.05404530046 29.176356034132 37.866674127929 42.043174640883 29.182440349776  37.87775431107 42.028399649887 29.188416120827 37.891664693032 
42.002440301888 29.202385526778 37.917843751225 41.981655070683 29.210386344782 37.937209321454  41.96114550768 29.217381120842 37.955867112392 
41.943662346117  29.22071032328 37.970452187156 41.920038005406 29.227539466657 37.991328234864 41.889738290635 29.232915566989  38.01640807075 
41.886856086486 29.233390746521  38.01877559836 41.878188903534 29.234485030285 38.025727392788 41.850234132926 29.238359368966 38.048322235074 
41.845014112974 29.239180060891 38.052590112579 41.805137643162 29.240258897434 38.082592136521 41.795442878852 29.240695905148 38.089973776098 
41.756127713092 29.237991659322 38.117665459493  41.74231645303 29.237344305837 38.127545083263 41.706100595079 29.232515669663 38.151882447116 
41.688746569298  29.23078564401  38.16383701959 41.655690586279 29.225543525206 38.185632623062 41.635232637063 29.222889574365 38.199417465298 
41.605178246727 29.217411018503 38.218876964668 41.581538306791 29.213567846705 38.234416818882  41.55468564694 29.207842846675 38.251387334429 
 41.52747084262 29.202156922237 38.268644988804 41.504227075004 29.196037464235 38.282751535031 41.472946589701 29.187360599549 38.301514275909 
41.453662284933 29.180844151526 38.312496576314 41.418332996256 29.168610455738 38.332468375788 41.402911113861  29.16216070312 38.340630470586 
41.364236044405 29.146048777366 38.361130875613 41.351942321757 29.139936416824  38.36715089251 41.311042664424 29.120059986324 38.387408531864 
 41.30086850252  29.11417776375 38.391977898301 41.259086970296 29.091269034241 38.411367648057 41.249842301827 29.085293664579 38.415203613954 
41.208308537681 29.059678871459 38.433054345124 41.198836315762 29.052902980728 38.436657303805 41.158679086206 29.025576243102 38.452633200283 
41.147609594359  29.01697187323 38.456500029781 41.110001647938 28.988984665771 38.470261520681 41.095778222074 28.977285460959 38.474907762104 
41.062027324081 28.950221239281 38.486282090533 41.043213597315 28.933770632176  38.49193887882 41.015138217508  28.90953360817 38.500536696051 
40.990438683371 28.886079516786 38.507032693578 40.969787055205  28.86644153355 38.512450214912 40.938485960513 28.833292219855 38.518965447846 
40.926738524167 28.820679205395 38.521324489962 40.888624502369 28.774812224493 38.526500623088 40.886444420237 28.772106430075 38.526755477811 
40.878817258049 28.761352199201 38.527001794275 40.849353151637 28.720681125968 38.528390800181 40.842012686782 28.709660247675 38.528291687057 
40.815109257574   28.6666304221  38.52660688831 40.798711085027  28.63842767121 38.524590220152 40.783189646033 28.609303268084 38.521463981325 
40.759304622173 28.562909241946 38.515863387053 40.753309141706 28.549507907093 38.513577768882 40.728412837672 28.493903412189 38.504109114469 
 40.72583220745 28.485821412397  38.50196597465 40.707027402187 28.433813321504 38.489798911689 40.703674333311 28.420311518065 38.485510690249 
40.690926283922 28.379458656876 38.474458488421 40.685836525699 28.355033887246   38.4659800481 40.678370454009  28.32996516252 38.458934594831 
40.671522234435 28.287817307202 38.442874595125 40.670672357486  28.28221240036 38.440693974167 40.670814646665 28.278465090959 38.438711134409 
40.667433644984 28.234818773477 38.419338638856 40.671415734398 28.193911315053 38.395898558569 40.671030552388 28.188627921654 38.393535717823 
40.671769874632 28.181502904302  38.38941926663 40.677537832966 28.143707656493 38.366219231625 40.691095204975 28.111489094376 38.340058624687 
40.692251369737 28.103198856423 38.335050330376 40.696213151323 28.095404032309 38.328217440607 40.710232186309 28.064828151373 38.302538868986 
40.735801491047 28.039560416255 38.270986578003 40.740335377486 28.034720892561 38.265211858678 40.782156109111 28.013531427969 38.223696280865 
40.782939521656 28.013124241714 38.222913447687 40.831850671483 27.999364123797 38.179882065492 40.836721022028  27.99795985795 38.175580110769 
40.881952104222 27.991478450634  38.13891486728 40.914830403058 27.990753001496 38.114260291609 40.931604326339 27.990509028669 38.101745171469 
 40.94780540524  27.99135885786 38.090201364708 40.980058996335 27.988739556167 38.065059356289 41.014933514217 27.989259845556 38.039554157613 
41.027019462285 27.989193871548 38.030591788212 41.038935997123 27.989608746421 38.021995529609 41.073973882178 27.987839604044 37.995222436461 
41.107461793396 27.986771324522 37.969945681878 41.122692819159   27.9858764094 37.958244305264 41.147106552929 27.983162721003  37.93884722568 
41.174655452585    27.977761447 37.915787126262 41.184152658129 27.974231171541  37.90700146189 41.223054978777   27.9628275774 37.872545593284 
41.237675595218 27.958118513162 37.859383991537 
POLYGONS 1 179
178 0 1 2 3 4 5 6 7 8 9 10 11 12 13 14 15 16 17 18 19 20 21 22 23 24 25 26 27 28 29 30 31 32 33 34 35 36 37 38 39 40 41 42 43 44 45 46 47 48 49 50 51 52 53 54 55 56 57 58 59 60 61 62 63 64 65 66 67 68 69 70 71 72 73 74 75 76 77 78 79 80 81 82 83 84 85 86 87 88 89 90 91 92 93 94 95 96 97 98 99 100 101 102 103 104 105 106 107 108 109 110 111 112 113 114 115 116 117 118 119 120 121 122 123 124 125 126 127 128 129 130 131 132 133 134 135 136 137 138 139 140 141 142 143 144 145 146 147 148 149 150 151 152 153 154 155 156 157 158 159 160 161 162 163 164 165 166 167 168 169 170 171 172 173 174 175 176 177 

CELL_DATA 1
FIELD FieldData 6
ClosedSection 1 1 int
1 
SectionArea 1 1 double
        2.22018 
SectionLength 1 1 double
        5.56978 
SectionMinSize 1 1 double
       0.562646 
SectionMaxSize 1 1 double
        1.00209 
SectionShapeFactor 1 1 double
       0.561475 
