# vtk DataFile Version 4.2
vtk output
ASCII
DATASET POLYDATA
POINTS 418 double
39.661877089217 44.954413605266 37.653704436191 39.666187903261 44.923937164749 37.614034056543 39.667907290512 44.908588657781 37.594677135254 
39.670683471497 44.888367836719 37.568471886028 39.673191481607 44.863311212194 37.537283040174 39.674516655595 44.852719426469 37.523734201379 
39.677394398192 44.817517028394 37.480805743565 39.677488024673 44.816633122828 37.479698420573 39.677682987229 44.813223928453 37.475656283491 
39.679581905024 44.779996282334 37.436261437395 39.679646318883 44.771248024173 37.426489146802 39.680430616202 44.742264770193 37.393327191288 
39.680128301357 44.725038129914 37.374674972128 39.680220091512 44.703389723751 37.350585587504 39.679355919495 44.679364199505 37.325181174202 
39.679159152921  44.66337622564 37.307754729342 39.677791702935 44.634272058712 37.277421630634 39.677535329088 44.622334801398  37.26456106705 
39.675875640981 44.589794249908 37.230826550751 39.675664365061 44.580476867707  37.22080387847  39.67358698702 44.545639987883 37.185102624895 
39.673309046714 44.537628173708 37.176616897616 39.670532120978 44.501179314421 37.140094508805  39.67012138603 44.493381218079  37.13202819181 
39.666369839001 44.456220150102 37.096059383107 39.665697009876 44.447536880861 37.087374124885 39.660803407468 44.409762714486 37.052299139828 
39.659635520177  44.39856377574 37.041510878498 39.654523362171 44.363137082095 37.009335276988 39.652535173613 44.346721641033 36.993902233989 
39.647755854066 44.317655377715 36.968308825842 39.641738361748  44.27788279207 36.932569216781 39.641359587948 44.275204752539 36.930126373843 
39.640780326548 44.271343907659 36.926650310245 39.634075439962 44.231455841257 36.891729332813 39.629494160454 44.206706638882 36.870641877832 
39.625972382889 44.186847065887 36.853508032545 39.621419412145 44.162322883706 36.832630678597 39.617234330989 44.142277604214 36.816204560868 
39.612681088272  44.12103467644  36.79895965947 39.607332122041 44.096317987159 36.778965206169  39.60306718159 44.077195275395 36.763670251497 
39.596250521961 44.049204291289 36.742072261245 39.585076138496 44.004073055347 36.707501487571 39.584690261182 44.002614237139 36.706418002793 
39.583898990649 43.999648511696 36.704224673703 39.571979224993 43.955921738346 36.672234826021  39.56606835467 43.934650719457 36.656828120145 
39.559039322021 43.910212957055 36.639455665469 39.546047969553 43.866102508092 36.608516566789 39.545916502526 43.865666848083 36.608215341379 
39.545677126103 43.864898660298  36.60769461341 39.531809012157 43.821526005452  36.57877938718 39.522949804637 43.794963177034 36.561574590517 
39.517274698165 43.778159549182  36.55078829967 39.508559002619 43.753478928431 36.535469352953  39.50209719477 43.735631317815 36.524610652529 
39.496711293046 43.721527333431 36.516414444218 39.485395576182 43.692074975855 36.499393495206 39.472645418362 43.660578694867 36.482085144331 
39.466386330105 43.645476192882 36.473985932295  39.45998743534 43.630864427108 36.466622421544 39.445004742233 43.597125674137 36.449905771898 
39.422324827145 43.548642580382 36.427466502454 39.420055589671 43.543851713383 36.425287875029 39.409742424611 43.523092113335 36.416508698482 
39.393622752907 43.490852504263 36.403016960421  39.39043728679 43.484801992604 36.400705546962  39.36712308264 43.441305285454 36.384659136157 
39.361760864782  43.43174869979 36.381463913438 39.338639607557 43.391614238334 36.368873566655 39.336486180417 43.387961015916 36.367794761063 
39.331209303033  43.37931680368 36.365491956922 39.310174389712 43.345124537794 36.356606485829 39.298819744829 43.327316399405 36.352528326539 
39.280939004675 43.299841443924 36.346735446768 39.249204797334 43.253078851804 36.338667303174 39.249028795984 43.252823583536 36.338627074958 
39.248756342283 43.252449744348 36.338588401809 39.214850103988 43.206336617714 36.334229788571 39.190461920599 43.174905278021 36.333017485051 
39.179216115509 43.160703815447 36.332781759188 39.163470860835 43.142046936978 36.333809456688 39.142243356325 43.117108823354 36.335432744024 
39.126600738499 43.099730775239 36.337734682674 39.105527427691 43.076917879241  36.34149810449 39.078719714277 43.049594791842 36.348164699611 
39.071061086158 43.041903192155 36.350195743568 39.064374484734 43.035590053196 36.352414265937 39.037501461581 43.010731712344 36.361899055917 
39.017582370951 42.993119579298  36.36983007101 39.003106138084 42.980550763156 36.375849460983 38.970640456064 42.953583460995 36.390700223894 
38.965794718863 42.949600834938 36.392963783061 38.963537027657 42.947802893945 36.394082180118 38.926290397337 42.918714610608 36.413167983047 
38.903880956564 42.901844223925 36.425348963089  38.88544108517 42.888180935004 36.435614315892 38.845864829349 42.860199770566 36.459133222524 
38.844798670299 42.859451101323 36.459772480298 38.842263802283 42.857747907586 36.461377393917  38.80391419447 42.832166970502 36.485864207415 
 38.78794630953 42.821974920277  36.49656830694 38.762961911631 42.805999334303 36.513285164124 38.726501475639 42.783897623256 36.539022031386 
38.720808947816 42.780438243268 36.543030709737 38.709960120213 42.774262319416   36.5511320032  38.67663551973 42.755416355631  36.57615504556 
38.660086582215 42.746667021981 36.589256152948 38.630694445307 42.731328467165 36.612747078046 38.597748469061 42.715648263355 36.640753035589 
 38.58029684455 42.707811120739 36.656106754757 38.546421487515 42.693494506215 36.686901738872 38.528013032647 42.686170481836 36.704140878041 
38.498782764519 42.675120551598 36.732156083071 38.475467149859 42.666945563459 36.755209844876  38.45391061375  42.65984451088 36.777030325013 
38.422573236569 42.650253719396 36.809561912293 38.410333366963 42.646775003718 36.822564090487 38.368801084629 42.635807971488 36.867609452035 
38.367918874889 42.635589110607 36.868581887886 38.364987413334 42.634913944696 36.871870805189 38.326593953608 42.626289491057 36.915187426534 
38.315051126097 42.623901102061 36.928436763261 38.285623312729 42.618161777533 36.962602366983 38.262482893872 42.613928005017 36.989777505944 
38.244383070478 42.610789315252 37.011224516978 38.211346034474 42.605331177919 37.050670837601 38.202498358906  42.60394178229 37.061315077257 
38.159796421767 42.597122626391 37.112562270005 38.158169393228 42.596877390736 37.114531037137 38.146827908171 42.595043423468 37.128116848638 
38.112077550277  42.58950287081 37.169830980648  38.10679934217 42.588554605339 37.176048787255 38.066800774552 42.582039320257 37.223910124969 
38.047560623084 42.578377959097 37.246348676593 38.025751177318 42.574636006832 37.272235630012 37.988307239824 42.567311016629 37.315683272222 
 37.98662080448  42.56701205846 37.317674368994 37.981618092912 42.566005556116 37.323448386556  37.94822985556 42.559274084172 37.361968792809 
37.938717796143 42.556999844398 37.372548359678 37.909460744177 42.550599223158 37.405746844538 37.892538371822 42.546126794371 37.424096307859 
37.869419833385 42.540593010053 37.449802314238 37.848349979329 42.534430160864 37.471991205465 37.828143622233 42.529024626365 37.493829450061 
37.806301903074 42.521803869306     37.51591009 37.787358609965 42.516071605011 37.535647584321 37.767107537361 42.508627132345 37.555290460368 
37.748985334294 42.502363866941 37.573309637924 37.730276034053 42.494844518733 37.590746797647 37.715624821159   42.4891307366 37.604595071508 
37.679689731239 42.473705920716 37.636999372765 37.676886049885 42.472605114416  37.63964120327 37.669514121776 42.469368829977 37.646209162384 
37.635599059391 42.453625198389 37.675479225768 37.620745569541 42.445966143959 37.687452754657 37.591094930371 42.432137642002 37.712971110311 
37.555769297273 42.413570275539 37.741057718387 37.545456319421 42.408694577248  37.74986045362 37.523561001575 42.397462913009 37.767575148979 
37.498819606279 42.383792102439 37.786508617113 37.485346293657 42.375780068795 37.796191088924 37.451516176553 42.358324068506 37.823448741907 
37.412245711834  42.33898478214 37.856112457399 37.405549808305 42.336115691594 37.862156065265 37.395526122085 42.332541007533 37.872000596162 
 37.36082423292 42.316153967123 37.901641824959 37.327938972126 42.304174553875 37.933660654628 37.318216123243 42.300865446684  37.94338494036 
37.305072671853 42.298548367572 37.958917077987  37.27805031315 42.289650213634 37.986274095997 37.260907470072 42.289015041091 38.009174647271 
37.242490724459 42.287640303033 38.033010571211 37.218662672112  42.29502578433 38.073994054766 37.212404052446 42.296466505288 38.084206181269 
37.190546843363 42.311529236785 38.130974133428 37.187166691066 42.313388866637 38.137686653867 37.169743792547 42.332719397608 38.183073195356 
37.165902056412 42.336159524915 38.192170741636 37.153191753353 42.356342171028 38.232011826678  37.14780258303 42.363171394693 38.246991454108 
37.139311933249 42.381434185798 38.278897462457 37.132315643333 42.393328915099 38.301696997506 37.127149894522 42.407665251769  38.32467875546 
37.118860961127 42.425631049462 38.355978277369 37.116213652264 42.434838485275 38.369815175802 37.107033676313 42.459385618625 38.409626552146 
37.106190717792 42.462852084391  38.41462429651 37.100877121464 42.479859669509 38.440766474504 37.096995564534 42.491618010621  38.45912642604 
37.096200614981 42.493703929134 38.462529915848 37.088580822005 42.521127235705 38.503376794322 37.086109902532 42.528698083727 38.515159258021 
37.080703170145 42.551260290658  38.54757818152 37.076918349341 42.564736382914 38.567706347915 37.073319083886 42.582274327162  38.59207516213 
37.068541216612 42.601654065039 38.620105483103 37.066417096874 42.614369807621   38.6371054193 37.061256760442 42.639743547958 38.672297220833 
37.060253601809 42.648116946634 38.682947111631 37.055308592238 42.679416162664 38.724401446961 37.054905975798 42.683829127598 38.729840589731 
37.049865556548 42.719709040166 38.776496746092 37.049729536564 42.721188574253 38.778321751505 37.044907116238 42.757740122299 38.825421194639 
37.044546794555 42.760445100495 38.828911502123 37.044529747563 42.760548298561 38.829049205532 37.039751277606 42.801594805899 38.881063683595 
37.039650353749 42.802294745477 38.881977419017 37.035558633275 42.844861395886 38.934728998604  37.03549726602 42.845368834056 38.935375186153 
37.031983077617 42.889900010284 38.989506141577 37.031977423237 42.889959857091 38.989580172458 37.031690300833 42.894816412086 38.995351311441 
 37.02927369904 42.935606608559 39.043830065868 37.029260196679  42.93613440779 39.044432887226 37.027569031377 42.982017380753  39.09755008643 
37.027559501132 42.983343297592 39.099030889045 37.026653568369 43.028313677167  39.15005675177 37.026680910957 43.030617465329  39.15256920785 
37.026602288702 43.074015322131 39.200715310372 37.026727681336  43.07774775227 39.204674152192 37.027611717555 43.119139925886 39.249274663767 
37.027908058518 43.124843603934 39.255180139176 37.029493482495 43.163218091915 39.295474594918 37.030088606035 43.171967267811 39.304339797624 
37.032114551521 43.205505492228  39.33867436319 37.033223703197 43.218593472717 39.351634509854 37.035385772208 43.245845894499  39.37882378446 
37.037526595754 43.267249290037 39.399567921745 37.039216991436 43.284661051552 39.416513834339 37.043828426724 43.322344789858 39.451877233199 
 37.04408662355 43.324465270908 39.453868924875 37.044241370264 43.325503063193 39.454804607734 37.050300029552 43.366185163111  39.49149429213 
37.054217694555 43.388376148278 39.510663729027 37.058166884503 43.411184128693 39.530472722729 37.066641002138 43.452818415343  39.56489060344 
37.067730919079 43.458307396271 39.569465768081 37.071296530345 43.473689390157 39.581582948752 37.079384600669 43.508664106173 39.609160774642 
37.083033710085  43.52261694062 39.619581026737 37.093130025185 43.561920906801 39.649185863863 37.105335835856 43.603983851114 39.678940140378 
37.110466032424 43.622152928545 39.691988146779 37.116159260637 43.640155149385 39.704076229773 37.130637608879 43.684129838111 39.732817638574 
37.143299093457 43.720481637463 39.755622740317 37.150425921114 43.740273016927 39.767717380223 37.169783269943 43.791724140211   39.7980167881 
37.170304942931 43.793063974002 39.798781592615 37.171803419421 43.796755801552 39.800804919246 37.190649331783 43.843568064566 39.826673677858 
37.198067346046 43.861243827166 39.836025575371 37.211852208321  43.89311504449 39.852324286159 37.229524113314 43.932305508386 39.871372808668 
37.234257773107 43.942495673584 39.876134800612 37.244919768575  43.96455536172 39.885872769922 37.258241763255 43.992409809153 39.898362560697 
37.264770971836 44.005561864405 39.903930865796 37.283947772998  44.04336022013 39.919366378162 37.302390857129 44.078467017404 39.932832797436 
37.311576254959 44.095672425834 39.939230576877 37.340632521411 44.148071048066 39.957224543892 37.341773405522 44.150142283798 39.957946370741 
37.342181813737  44.15085810865 39.958176400793 37.372984898497 44.204159641874 39.974764656927 37.385652696075 44.225269260032 39.980689228636 
37.405473746332 44.257988848006 39.989615910282 37.424044716017  44.28715692623 39.996332574202  37.43871092906 44.310359834926 40.001822667982 
37.465841270738 44.351816700305  40.01035677934 37.471820503187 44.360958773567 40.012243616061 37.504907150932 44.410305516384 40.021310053486 
37.505136006222 44.410645030602 40.021370761498 37.507001107161 44.413347601302 40.021794264555 37.539220936627 44.460123549287 40.029208548681 
37.543388687658 44.466051144623 40.030031415618 37.574741506894 44.510337230405 40.035883396486 37.583874044713  44.52301237592 40.037339330305 
37.610345646395 44.559355991038 40.041120501049 37.632522592364 44.588982920618 40.043380079564   37.6429275133 44.602849098202 40.044402469024 
37.655488324073  44.61927892118 40.045294201312  37.67156074183 44.640417391493 40.046562957113 37.695717026355 44.671559582333 40.047774493563 
37.703752227178 44.681900351858 40.048157366818  37.73613091476 44.722432524919 40.048441578397 37.742527027028  44.73038808315 40.048441047398 
37.778991881398 44.774414733507 40.046967196562 37.788635306038 44.785846404661 40.046343277031 37.822093331769 44.824748802218 40.043337342579 
  37.8438217611 44.849395586884 40.040701864824 37.865243007064 44.873531656822 40.037924022558 37.903913253432 44.916147850384 40.031852352584 
37.907440069412  44.92000475029 40.031265620965 37.914960534319 44.928045536317 40.029811331635 37.947201567282 44.962916103908 40.024018146651 
37.964268254695 44.980854212076 40.020375375606 37.985503339849 45.002931690546 40.015575163391 38.013434500701 45.030874595712 40.008047803311 
38.023241158217 45.040943700761 40.005690883398 38.032292582527 45.049831344887 40.003066049029 38.061423052906 45.078267544249 39.994433419849 
38.090385121637 45.104828677364 39.983957115775 38.101803198376  45.11560120113  39.98016009175 38.113870092865 45.126325765143 39.975416636158 
38.143150403086 45.152217203466 39.963760854879 38.171093594301 45.175345753138 39.950887835869 38.185699835649 45.187767567745 39.944526721261 
38.201456845693 45.200440193018 39.936858763171 38.230047091604 45.223359328906 39.922863023807 38.259533772366 45.245844969247 39.907153157549 
38.276590506968 45.259222344333 39.898475734861 38.293643911097 45.271829306513 39.888950114269 38.325860282395 45.295393077703 39.870675194117 
38.346867544809 45.309022966584 39.856837881306 38.376759115616 45.329209654023 39.838025778807 38.405902641078 45.346689205224 39.817247068259 
38.423077464796 45.357351645287 39.805401841836 38.459655168533 45.377468097699 39.777305993365 38.467210188337 45.381732390446 39.771623859423 
38.501647962968 45.399015351466 39.743337994844 38.509204281882 45.402830031827 39.737156388344 38.510874966109 45.403567157334 39.735671994083 
38.549606638838 45.421631599191  39.70233898266 38.561102061018 45.426346608272 39.691730293971 38.588397799688 45.438232307148 39.667303830507 
38.614905477973 45.448499961543 39.642171389667 38.626126050336 45.453145235141  39.63186394472 38.641764488055  45.45887922584 39.616678750122 
38.664017608063 45.466962697612 39.594986614703 38.680839212798 45.472242576954 39.577669677474 38.703097038531 45.479909892905 39.555510412657 
38.730850095013 45.488557074318 39.526869505719 38.742905622672 45.492152546408 39.514250383956 38.753344818238 45.494922909286  39.50294342939 
38.782686423204 45.503758613058 39.472323960788 38.810987374259 45.511645543162  39.44208713335 38.821976549514 45.514542518618 39.430163072525 
38.835830323223 45.517934605684 39.414842851589 38.860710677995 45.524776676941 39.388159201598 38.877320354892 45.529005019314 39.369970098813 
38.898714034832 45.533942514116 39.345978971986  38.93319719814  45.54163688294 39.307016831717 38.934304383319 45.541858335998 39.305737501047 
38.936512603664 45.542271874789 39.303154800333  38.96965659886 45.549175004749 39.265160697447 38.991811262629  45.55339329513 39.239325687342 
39.005166639002 45.555853986628  39.22366072155 39.021290324718 45.558390104974 39.204267617754 39.043000645877 45.562598819658  39.17903381452 
39.055179292217  45.56481281665 39.164715994102  39.08643009835 45.569272808953 39.126624233119 39.096775006005 45.571056244831 39.114354654864 
39.132954418803 45.576066345582 39.070085719454   39.1341863382 45.576270935967 39.068615979167 39.137917174373 45.576758474052 39.064018730542 
 39.17196412301 45.581446472574 39.022329401421 39.182710627114 45.582378259867 39.008564168352   39.2127414638 45.586110806227 38.971346936019 
39.229751211779 45.586903612288  38.94880412801 39.265775489863   45.5888068037    38.901309702 39.271894183703 45.588876056286 38.892961652752 
 39.28917772052 45.588894105171   38.8691842781 39.313391325473 45.589636591848 38.836666925296 39.323123694722 45.589774752825 38.823419555164 
39.354113222608 45.588931324844 38.779817093967 39.377007260447 45.588129257979 38.747406933096 39.393483428176 45.586533675158 38.722955051412 
39.420343946848 45.584007277635 38.683174831215 39.434190649679 45.580482676744 38.660208142774 39.452309594385 45.577119286187 38.631537537202 
39.474899421699 45.569108132145 38.591566372584 39.479456573553  45.56771505437  38.58374969987 39.483879955569 45.565444311882 38.575145709681 
39.503167880928 45.556548594824 38.538741728951 39.513798639444 45.547909006797 38.514541140375 39.521792856756 45.541786461273 38.496756910718 
39.530915051929 45.531244471055 38.472527630219 39.537399993918  45.52385612066 38.455420349695 39.541739687814 45.515799402517  38.44052699002 
39.550515211465 45.501557345826 38.412679366053 39.558842334272 45.481929146773 38.379487120679 39.562065846368  45.47443724661 38.366755816146 
39.563893885446 45.468318456688 38.357465830086 39.572794613242 45.445015545148 38.319416195846 39.580586622349  45.41584024871 38.276392888132 
39.581708222577 45.412688873536 38.271360266927 39.583066006196 45.407503780099 38.263751291144 39.590097811461 45.380857082735  38.22457364345 
39.592457230841 45.368039842645  38.20713737855 39.597008138068 45.349882873099 38.180773058009 39.600241511862 45.332951030871 38.157578937603 
39.603201935185 45.320285608987 38.139483212729  39.60586954874 45.306441997994 38.120486493526 39.611886380398 45.276696614305  38.07927635226 
39.612000531477 45.276209323922 38.078579789667 39.612066818988 45.275927422876 38.078176478516 39.617932661171 45.245045001447  38.03591562459 
 39.62240037094 45.221425349889 38.003619118386 39.623909608975 45.211339037782 37.990376363134 39.625743312351 45.198804953001 37.973977375578 
39.629671072634 45.176651826455 37.944047637198 39.633009343111 45.156889266074 37.917575715075 39.635251819849 45.141053116722  37.89695878251 
39.637347830578 45.125151548749 37.876471103021 39.640650092577 45.104841439846 37.849442669178 39.644131088687 45.081353761323 37.818650832381 
39.645876430992 45.068352300384 37.801856160532 39.647002679687 45.059143547714 37.790112121515 39.651102345381 45.031800851211 37.754201264004 
39.654910876706 45.003569428983 37.717707517436 39.656256780513 44.995346652837 37.706752434439 39.659247719641 44.974261093052 37.679294294595 
 39.66127278582  44.95965266971 37.660335701704 
POLYGONS 1 419
418 0 1 2 3 4 5 6 7 8 9 10 11 12 13 14 15 16 17 18 19 20 21 22 23 24 25 26 27 28 29 30 31 32 33 34 35 36 37 38 39 40 41 42 43 44 45 46 47 48 49 50 51 52 53 54 55 56 57 58 59 60 61 62 63 64 65 66 67 68 69 70 71 72 73 74 75 76 77 78 79 80 81 82 83 84 85 86 87 88 89 90 91 92 93 94 95 96 97 98 99 100 101 102 103 104 105 106 107 108 109 110 111 112 113 114 115 116 117 118 119 120 121 122 123 124 125 126 127 128 129 130 131 132 133 134 135 136 137 138 139 140 141 142 143 144 145 146 147 148 149 150 151 152 153 154 155 156 157 158 159 160 161 162 163 164 165 166 167 168 169 170 171 172 173 174 175 176 177 178 179 180 181 182 183 184 185 186 187 188 189 190 191 192 193 194 195 196 197 198 199 200 201 202 203 204 205 206 207 208 209 210 211 212 213 214 215 216 217 218 219 220 221 222 223 224 225 226 227 228 229 230 231 232 233 234 235 236 237 238 239 240 241 242 243 244 245 246 247 248 249 250 251 252 253 254 255 256 257 258 259 260 261 262 263 264 265 266 267 268 269 270 271 272 273 274 275 276 277 278 279 280 281 282 283 284 285 286 287 288 289 290 291 292 293 294 295 296 297 298 299 300 301 302 303 304 305 306 307 308 309 310 311 312 313 314 315 316 317 318 319 320 321 322 323 324 325 326 327 328 329 330 331 332 333 334 335 336 337 338 339 340 341 342 343 344 345 346 347 348 349 350 351 352 353 354 355 356 357 358 359 360 361 362 363 364 365 366 367 368 369 370 371 372 373 374 375 376 377 378 379 380 381 382 383 384 385 386 387 388 389 390 391 392 393 394 395 396 397 398 399 400 401 402 403 404 405 406 407 408 409 410 411 412 413 414 415 416 417 

CELL_DATA 1
FIELD FieldData 6
ClosedSection 1 1 int
1 
SectionArea 1 1 double
        11.9391 
SectionLength 1 1 double
        12.5737 
SectionMinSize 1 1 double
        1.69772 
SectionMaxSize 1 1 double
        2.23459 
SectionShapeFactor 1 1 double
       0.759746 
