# vtk DataFile Version 4.2
vtk output
ASCII
DATASET POLYDATA
POINTS 246 double
47.287565158495 23.915420768485 18.978753612628     47.30945199 23.888698813976 19.007497534041 47.315588057976 23.881093986439 19.015969830059 
47.322067962972 23.873124633115 19.024691663356 47.343176413524 23.847783966872 19.050838120879 47.366859336663  23.81922047147 19.080656646278 
47.369586947203 23.815913986979 19.084152198997 47.370922206911 23.814287007311 19.085893881569  47.39943254453 23.780727379087 19.118770852463 
 47.40491501055 23.774205127344 19.125344562121 47.435177074282 23.739526169072 19.156796029805 47.440589423423 23.733222730494 19.162790757686 
47.472862296825 23.696795320688 19.194300334889 47.477505274851 23.691510410676 19.198995186035 47.510953911871 23.654635272993 19.228438350559 
47.515202320432 23.649950857421 19.232180926383 47.549725067622 23.612873124978 19.258981812839 47.553711810671  23.60860269776 19.262035264247 
47.589380171414 23.571327326267 19.285950565606 47.595169453534 23.565295588706 19.289765055953  47.62837316793 23.531355536743 19.309251226599 
47.648176134355 23.511153395906 19.320726790471 47.670974449979 23.488254135039 19.332627335624 47.695518682665 23.463816708903 19.344651603146 
47.717428733205 23.441913617393 19.355708444029 47.761632753752 23.398591709816 19.374842880908 47.762331541301 23.397908791981 19.375138326068 
47.762658006166 23.397597451062   19.3752481734 47.807284427243 23.355030294041 19.390293529832 47.827762194261 23.336110531946 19.394956512436 
47.850895075147 23.314812603611 19.399950171094 47.893841176727 23.276685225123 19.404059207325 47.894733216505 23.275894881634 19.404138686873 
47.895261184836 23.275442278901 19.404130260388 47.938134535307 23.238920897552 19.402598162872 47.967120363877 23.215085816965 19.398432361544 
47.980996317829 23.203775620395 19.396072548167 48.007724214489 23.182591600961  19.38932769715 48.024362568372 23.169388567333 19.385186693011 
48.029806679909 23.165139595842 19.383571880457 48.072360651113 23.132870360458 19.367503151641 48.080530881648 23.126734799347 19.364198575861 
48.126321873647 23.093684996965 19.340788304291 48.131224122499 23.090136356426  19.33832017855 48.178082234457 23.057913272383 19.308527288738 
48.180191193287 23.056457817337 19.307205323538 48.224035160438 23.028230970162 19.272298102977 48.224743757934 23.027768630251 19.271756394124 
48.263045060835 23.004499613954 19.236183338533  48.26577699173 23.002839075898 19.233649005452 48.265821224452 23.002814349044 19.233600080676 
48.303871736566 22.980814451716 19.194177970136  48.30430991678 22.980582902609 19.193644325155 48.339913945494 22.960887940253 19.153502153057 
48.340741757936 22.960474283931 19.152407039722   48.3743007703 22.942808896898 19.111286922299 48.375554111166 22.942224137569 19.109477066391 
48.407152841775 22.926555650775 19.067231574648 48.409162917251 22.925697560112 19.064037540801 48.439080136137 22.911518345685 19.021644202223 
48.442274429149  22.91021773046 19.016338111705 48.471019558364 22.896660804327 18.975361560152 48.475860673641 22.894686009865 18.967333231255 
48.503673210335   22.8811754278 18.929124390874 48.510456449992 22.878322164784 18.918190518892 48.537618074629 22.864478362889 18.883249650381 
 48.54600289771 22.860780203289 18.870360022986 48.573919745126 22.845857334532 18.836984870165 48.582624243857 22.842008136347  18.82364053343 
48.610845640288 22.826741487685 18.790562821053 48.617770871579 22.824111097489 18.778367113499 48.642063977476 22.813223665945  18.74165420937 
48.645850621944 22.812234643477 18.733343629327 48.658844859763 22.808070344699 18.707640939776 48.670127790668 22.803123044398 18.690189877825 
48.680194784603 22.798743162613 18.674494256193 48.697100261216 22.792117608633 18.645469908298 48.719412651642 22.788000364228 18.590248619561 
48.720291998799 22.787482833012 18.589370887227 48.721382748062 22.786973189576 18.587798533249 48.750269854079 22.776707922076 18.534343137366 
48.759156575191 22.777130121104 18.504812056906  48.74654062015 22.793718869836  18.48390941286 48.753074725751 22.799629076548 18.441727845114 
48.743510145226 22.821845517659 18.390644801603 48.743911904321 22.824204671203 18.380756300063  48.73800220779 22.838890729845 18.345687685273 
 48.73477646909 22.848514519187 18.320669864666 48.732917106791 22.851393497274 18.316002474997  48.72431867806   22.8736546626 18.261713155008 
48.719896811283 22.881144669764 18.248261843365 48.712711885116 22.900176049744 18.201326378529 48.706596942943 22.911146006708 18.180487295366 
48.699945167849 22.928139324147  18.13932226947 48.693168300402 22.940569223569  18.11523145915 48.684616527188 22.959069387023 18.074542452476 
48.679694639156 22.967920083764 18.057692302966 48.667865309568 22.991328571584  18.00938468337 48.667100461711 22.992933929991  18.00592557499 
48.666819854103 22.993550246383 18.004556555455  48.65614017968 23.015645148741 17.957429640171 48.651200552532  23.02605080914 17.934951640124 
48.646287399948 23.035722874688 17.915071704001 48.639705106467  23.04917878721 17.886617809133 48.638320760795 23.052128684461 17.880195176884 
48.633966981092 23.060900847011 17.861842884974 48.628893124497 23.071100619911 17.840540189342 48.627826903627 23.073069041182 17.836703154761 
48.616292765482 23.095795265943 17.789959673236  48.61370892454 23.100433594485 17.781143163095 48.608390451832 23.110443107622 17.761306301182 
48.600832861666  23.12487808733 17.732345311531 48.594847527459 23.135999571318 17.710544177782 48.588823192606 23.146837255332 17.689903221136 
48.584451108367 23.154406499904 17.676005494947 48.575956267218 23.169378153492  17.64803462959 48.565270384348 23.187271145454 17.616286130566 
48.561445474408 23.193793458794 17.604491885842  48.54842504289  23.21484382646 17.568554948181 48.544898437904 23.220474899565 17.559078891225 
48.543669417377 23.222342375564 17.556123554289 48.526550207553 23.248700294406 17.513695103766 48.520070522576 23.258183385996 17.499439546847 
48.506215266268 23.278670226825  17.46819161652 48.494659071565 23.294937730286 17.445125580284 48.483277598604  23.31103245939 17.422140801592 
48.466821479022 23.333272873812 17.392674355367   48.4571514344 23.346336726996 17.375378088235 48.435216946661  23.37473637045 17.340651950653 
48.426449125962 23.386039403851 17.326950383405  48.39923779538 23.419948598689 17.288704578297 48.391360300368 23.429698789075 17.277874984574 
 48.35852277845 23.469258183505 17.236695651987 48.354970095105 23.473471415886 17.232484231333 48.338025863847 23.493026956289 17.214368822228 
48.316181794498 23.518107840802  17.19148868047  48.31124625022 23.523647207686 17.186785144763 48.275003109837  23.56338527506 17.155678385666 
48.264953360667 23.574107715163 17.148136316328 48.232320322872 23.608174396526 17.126389998826 48.225221620478 23.615395965908 17.122350314172 
48.202304756843 23.638206596828 17.111147085357 48.188516362849 23.651876319727 17.104606573884 48.183136972312 23.657074328817 17.102548622636 
48.152366470901 23.686338808325 17.092489484379 48.138730967185 23.699017837693 17.089088652543 48.111210987338 23.724122149322 17.083998601888 
48.093697900772 23.739729684805 17.082105532271 48.065093405544 23.764873718181 17.080285864882 48.043353280678  23.78355969716 17.080453080515 
48.015938058776 23.806728388937 17.082108201341 47.988844202796 23.829061500354 17.085805433171 47.967187406863 23.846624495153 17.089814955116 
 47.93446152675 23.872501545286 17.098295854338 47.922203197918 23.881992727753 17.102209994304 47.891083857167  23.90551380776 17.114242820445 
47.887020249837 23.908569465613 17.115871682218 47.882410985782 23.911931657469 17.118098590166  47.85180876748 23.934118628404 17.133379238327 
47.841477529018 23.941452048729 17.139111269591 47.807388492948 23.965376088733 17.159023955929  47.78941262265 23.977777130124 17.170308786281 
47.759019467639  23.99862709061 17.189818063634 47.735235813302 24.014701746018 17.205966109514 47.709098722485 24.032212609497 17.224276430646 
47.681140253843 24.050748533485 17.244576191133 47.658623765835  24.06554454308 17.261407139728  47.62606901174 24.086799756595 17.286242876115 
 47.60663031657 24.099360238346 17.301551941655  47.56944055098 24.123356221116   17.3309671049 47.553908255177  24.13326362413 17.343670908625 
47.509790257974  24.16161383342 17.378990245504 47.504330179712 24.165068274488 17.383559518947 47.489490665125 24.174616324266 17.395394987748 
47.457652736911 24.194977320281 17.421241703918 47.444201599522 24.203658832754 17.431871990729 47.414509125705 24.222358954159 17.457032654066 
47.384783019211 24.241048416534 17.482338201199 47.376429764421  24.24613617782 17.490049121894 47.353646554278 24.259841555517 17.511706573855 
47.340165149674  24.26793782002 17.524571388303 47.335859845576 24.270466612179 17.528887254847 47.305131802611 24.287892456345 17.561967091853 
47.293762846555 24.294235439372 17.574587568616 47.270441704198 24.306739577703 17.602329966902 47.253399209816 24.315826313923 17.622789701759 
47.235916891626 24.324692612397 17.645440364633 47.214391837302  24.33570718709 17.672970827593 47.202155295663 24.341641780308 17.689816430222 
47.176012814959  24.35467272772 17.724518758644 47.169097968758 24.357924772769 17.734409480569 47.138321252549 24.373101079622 17.775865139632 
47.136402895514 24.373983128111  17.77868274439 47.122283753791 24.380920646608 17.797791508763 47.103911786784 24.389927740781 17.822729395331 
47.101007576074 24.391452031286 17.826304320114 47.070557807449 24.406336949283 17.867795377257 47.063801344177 24.409896674706 17.876062651452 
47.035947252266 24.423420006342 17.914355763545 47.026236017833 24.428530631459 17.926259935529 47.000694764699 24.440614741394 17.962529646292 
46.988375999163  24.44694494055 17.978188182366  46.96555937906 24.457263934358 18.012328798726 46.950588608003 24.464764727767 18.032060798083 
46.931461224892 24.472886920806 18.062612292558 46.913883420497 24.481486763637 18.086537631079 46.898174010187 24.487419852648 18.114326190368 
46.880388772417 24.495653627538 18.140242874978 46.865788136105 24.499855308473  18.17086811904 46.851652332519 24.505629562737 18.194281332949 
46.837048423355 24.506928343647 18.235527592676 46.830426568825 24.508940726273  18.24902679217 46.825724458505  24.50542752015 18.276677131235 
46.820960244749 24.502527711806 18.302280961497 46.827322992168 24.486174658719  18.34201595121 46.828433757687 24.482036194356 18.353644659218 
46.830245384557  24.47963454062 18.356717666361 46.852257362667 24.447836532704 18.403621490162 46.853880333476 24.445968581289 18.405337857162 
46.859470733412 24.439086900569 18.412885427816 46.883121554603 24.409441268246 18.446760492445 46.887046764719 24.404078185889 18.454001619367 
46.916136614123 24.369971842513 18.487051833357 46.928903535552   24.3534946118 18.507071401866  46.95135809943 24.327865592924 18.530032397126 
46.970357679181 24.303284650245 18.560043587028 46.990551218677 24.280094570973 18.581210620762 47.006760916785 24.259750726823 18.604520785266 
 47.02978546649 24.232720400291 18.630808739443 47.039979792054 24.219909306248  18.64552994764 47.063867889514 24.191223382619 18.675149797521 
47.068842284754 24.184872495794 18.682697251448 47.091778555381  24.15693250825 18.712588233597 47.093023829483 24.155360583965 18.714412078027 
47.113465950416 24.130540919281 18.740752705265 47.135329782729 24.103632457608 18.770250783154 47.140824168377  24.09709029049 18.776859747977 
47.145689465221 24.091237807173 18.782929027276 47.169762629065 24.061479862172 18.815884491617 47.198202874232 24.026001230026 18.855996573422 
47.199570654632 24.024252815697 18.858079704417  47.20118371179 24.022203850226 18.860488937806   47.2294443632 23.987179359215 18.899506651441 
47.254369980544  23.95636855237 18.933625828046 47.258640764913 23.950996595495 18.939811041054 47.263259617709 23.945199028587 18.946455740666 

POLYGONS 1 247
246 0 1 2 3 4 5 6 7 8 9 10 11 12 13 14 15 16 17 18 19 20 21 22 23 24 25 26 27 28 29 30 31 32 33 34 35 36 37 38 39 40 41 42 43 44 45 46 47 48 49 50 51 52 53 54 55 56 57 58 59 60 61 62 63 64 65 66 67 68 69 70 71 72 73 74 75 76 77 78 79 80 81 82 83 84 85 86 87 88 89 90 91 92 93 94 95 96 97 98 99 100 101 102 103 104 105 106 107 108 109 110 111 112 113 114 115 116 117 118 119 120 121 122 123 124 125 126 127 128 129 130 131 132 133 134 135 136 137 138 139 140 141 142 143 144 145 146 147 148 149 150 151 152 153 154 155 156 157 158 159 160 161 162 163 164 165 166 167 168 169 170 171 172 173 174 175 176 177 178 179 180 181 182 183 184 185 186 187 188 189 190 191 192 193 194 195 196 197 198 199 200 201 202 203 204 205 206 207 208 209 210 211 212 213 214 215 216 217 218 219 220 221 222 223 224 225 226 227 228 229 230 231 232 233 234 235 236 237 238 239 240 241 242 243 244 245 

CELL_DATA 1
FIELD FieldData 6
ClosedSection 1 1 int
1 
SectionArea 1 1 double
        4.07928 
SectionLength 1 1 double
        7.44307 
SectionMinSize 1 1 double
       0.971482 
SectionMaxSize 1 1 double
        1.36666 
SectionShapeFactor 1 1 double
       0.710843 
