# vtk DataFile Version 4.2
vtk output
ASCII
DATASET POLYDATA
POINTS 449 double
 27.94332229548 37.009829244856 40.179033700042 27.935174221965 37.000118344419 40.185842734271 27.907781652542 36.967756681781 40.207127648698 
27.901041529349 36.959796734594 40.212348852311 27.899659747112 36.958175808247 40.213357626891 27.862412454949 36.914589805546 40.239943261539 
27.859813163071 36.911560954447 40.241726454625 27.822664269052 36.868384842102 40.266580281799 27.819518086401 36.864741213782 40.268611860184 
27.783443878982 36.823087739277 40.291204386311 27.779845043097 36.818942037168 40.293403396073 27.743776836201 36.777628452602 40.314115163244 
27.739850517949 36.773139618471 40.316321968538 27.703423072781 36.731831420544 40.334890013002 27.699294938847  36.72715674063 40.336957227515 
27.661896776124 36.685244815528  40.35321804166 27.657811010203  36.68065783721   40.3550401026 27.618031928211 36.636509605332 40.369900965373 
27.614548901377 36.632623655131 40.371316968471 27.572583716343 36.586321474958 40.385459681964 27.569755598978 36.583169892202 40.386588595903 
27.528900415477 36.538173109493 40.399902409703 27.520505192325 36.528761485629 40.403570381724 27.487947067644 36.492789839314 40.414817477529 
27.466226508471 36.468401781523 40.424520612893  27.44846518908 36.448781159515 40.430640057202 27.412327816363 36.408230565707 40.446643727153 
27.409801269613 36.405447822823 40.447467487065 27.403080466095 36.397914466734 40.450397526861 27.370320732405 36.361340251449 40.463855438611 
27.357802229952 36.347146963609 40.470222284934 27.330039759341 36.316242035367 40.481119074779 27.301170466541 36.283475522562 40.495998857914 
27.287887088094 36.268730422541 40.500976755633 27.251873342108 36.227987170442 40.518793778464 27.243513205059 36.218583524894  40.52262318181 
27.240136342305 36.214691263021 40.524699316503 27.198143522283  36.16794238246 40.541197637767  27.15721851666 36.121086329031 40.564581950859 
27.155623097649 36.119308946714 40.565215913564 27.154404785122 36.117930586242 40.565818946262 27.112794195577 36.070419515666 40.588862573387 
 27.09273749789 36.047408133784  40.60059328472 27.073292117226 36.024902451114 40.613069527574 27.040234510676 35.986595220914 40.634544601832 
27.036236742952 35.981921816797 40.637371553433  27.02439160016 35.968122553808 40.645478461983 26.999595480506 35.939751116182 40.659543916673 
26.989015967771 35.927655203865 40.665494090883  26.96367196353 35.898363581576 40.681523755756 26.940435794702 35.871453750758 40.696526711783 
26.928531651791 35.857472924777 40.705310053417 26.896425126328 35.819562124974 40.730145431723 26.894142196727 35.816817109857 40.732189680277 
26.881513775758 35.801499348548 40.744248875782 26.860450997165 35.776358859232 40.762063334482 26.855636696654 35.770535553417 40.766569052741 
26.828720288635  35.73685851964 40.798070301992 26.821289421018 35.727338512255 40.808022454279 26.801106748891 35.699730886755 40.844922446787 
 26.79696156709 35.693506992464 40.855622746754 26.788014619175 35.677546642451   40.8929620777 26.783582510695 35.670373653134 40.907324748835 
26.782766159773 35.668795560138 40.911418425379 26.777464599825 35.654439291618 40.961160468253 26.776162236629 35.646083539438 41.000602645293 
26.776487678321 35.643809265546 41.015337929927 26.777630851218 35.642515190247 41.029358164254 26.778373607799 35.636170261437 41.069495939755 
26.781798440918  35.63199525621 41.113179561083 26.782906558202 35.631290571754 41.123670998215 26.784059240137 35.631205499608 41.130931667547 
26.789399285319 35.628447588021 41.177893684199 26.796483442955 35.628490789901 41.219325411339 26.798267588044 35.628044218229 41.232338783288 
26.803158326886 35.628722416442 41.257287224148 26.809280683434 35.629835759588 41.287028087906 26.812787020289 35.631144079062 41.300280075738 
26.822508227724 35.633880978501 41.342040094068 26.832479075711 35.638135691527  41.37671235791 26.837896799403 35.640075878841 41.397646785971 
26.854658318202 35.647986328378 41.451659310562 26.855368825453 35.648284111394 41.454160451172  26.85810689408 35.649688459938 41.462351463039 
26.874848910724 35.658457117901 41.511411286001 26.880022837537 35.661512740691 41.524623448506 26.896662525153 35.670852113063  41.56986399719 
26.908100736403 35.677914104324 41.597343135869 26.920797674207 35.685431840416 41.629658047939  26.93900021413 35.697095503184  41.67098996649 
26.947713660765 35.702498901102 41.691789611775 26.972109202419 35.718653006789 41.744240288992 26.977140213844 35.721877069726 41.755662150486 
27.002913238719 35.739575141839 41.807512608163 27.009693856861 35.744115304274 41.821807961769  27.02985244795 35.758211631722 41.860933455337 
27.042701462793 35.767119096049 41.886308712921 27.053761951202 35.774971824714 41.907108133622 27.068481663048 35.785375849077 41.935051934257 
27.083871835407 35.796516117868 41.962789549594 27.097815407708 35.806495840326 41.988559326642 27.116577206807  35.82027596946 42.021250159375 
27.133661714417 35.832715073004 42.051633437706 27.145899741318 35.841801652317 42.072404601122 27.170246002238 35.859785415351 42.114251050173 
27.174492643803 35.862976047851 42.121247012929 27.194926317707 35.878264569202 42.155270039562 27.202814622852 35.884164159038 42.168418294757 
   27.204324365 35.885287225004 42.170968878394 27.231568248433 35.905852791188 42.215307318989 27.238384556972 35.910959450763 42.226619124398 
27.260724812206 35.927968791066 42.262157584066 27.273316339968  35.93749826264 42.282511637961 27.290276141558 35.950533396104  42.30880128983 
27.309615192179 35.965328786873 42.339164697832 27.320297059787 35.973623595777 42.355244600708 27.347094650524 35.994359794558 42.395995647672 
27.350650702609 35.997153106853 42.401168764067 27.364701216958 36.008164682476 42.421750809554 27.381373134245 36.021233194056 42.446158709587 
27.385591728492 36.024532794427 42.452375389389 27.411517368681 36.045158004458 42.488622529658 27.424194211497   36.0552330903 42.506402694271 
 27.44087642211 36.068711134681 42.528562492162 27.460628892553 36.084686996482  42.55470333889 27.465542531867 36.088705969814 42.560953570855 
27.487226468582 36.106431458383 42.588593847693 27.498747843494 36.115958114488 42.602668189462 27.519238458897 36.132803078737 42.628252070907 
27.538667319231 36.149017707836 42.651143155975 27.553472050826 36.161274889166 42.669140328199 27.579759582042  36.18339564633 42.699085592899 
27.588643981889 36.190830973048 42.709436356975 27.618921655359 36.216608829664 42.742239017959 27.624041023734 36.220949441447 42.747886359533 
27.657424484061 36.249679082611 42.782319924772 27.660438172872 36.252265768956 42.785467192732 27.695800776875 36.282993118936 42.820282157351 
27.697973124346 36.284878328635 42.822434342546 27.734862106728   36.3171882768 42.857307241839 27.736599559596  36.31870886913 42.858956448181 
27.774898473625  36.35243686653 42.894129850383 27.776319173059 36.353687513807 42.895437392884 27.815840587414 36.388634420896 42.930931269574 
27.817095166012 36.389743600161 42.932059039373 27.858107369322 36.426100095888 42.968376787904 27.859321808972 36.427176589378 42.969452684283 
27.901492057291 36.464599396978 43.006571962897 27.903072936188 36.466002109235 43.007964587488  27.94576654513 36.503868271648 43.045663414107 
27.948929163593 36.506672415397 43.048460946541 27.990570975303 36.543553860161 43.085523315713 27.997167304542 36.549393249268 43.091410397298 
 28.03542866049 36.583228924545 43.125755837927 28.048181380327 36.594508228637 43.137193846502 28.080282212656 36.622877514007 43.166113292961 
28.102558551422 36.642586768275 43.186055532238  28.12507105849 36.662485049897 43.206321519278 28.161441102857 36.694682478797 43.238775871178 
28.169695147451 36.701980025734  43.24619503426 28.185513751865 36.715980727861 43.260327963044 28.213004171463 36.740311909083 43.284888870002 
28.230212149424 36.755559886778 43.300164062081 28.255383169782 36.777800830963  43.32286349479 28.283676715467 36.802824458697 43.348245574174 
28.296970776149 36.814609746011 43.360015851579 28.310259842273 36.826401666658 43.371719352533 28.337116808323 36.850139719659 43.395897364372 
28.360555585342 36.870869139172 43.416927120743 28.376177294567 36.884732139997 43.430678000859 28.394856180716 36.901299089564 43.447170941863 
28.414197372787 36.918380189099 43.464661736704 28.428944549081 36.931430235654 43.477850703908 28.451724033944 36.951661454427 43.497810425591 
28.482502089964 36.979094693217 43.524224903361 28.489051162126 36.984907140515  43.52998585599 28.493953188434 36.989284547875   43.5341471722 
28.526892773949 37.018807400262 43.561497909527 28.564076262901 37.052381561068 43.590976618809 28.566286733788 37.054383878652 43.592692908074 
 28.56870965824 37.056604098717 43.594430656526 28.607907608897 37.092362613366 43.623446364227 28.651981045124 37.133129035235 43.652912939354 
28.654950016837 37.135882984985 43.654854228967 28.657366375926 37.138164316968 43.656208848343 28.704393942811 37.182295128828 43.684088174125 
28.737366656706 37.214111282024 43.698705792206 28.759929041768 37.235786018403  43.70925080887 28.801388992599 37.276470832779 43.723802601209 
28.814653139393 37.289492109478 43.728429263844 28.862299653124 37.337188692054 43.739848485465 28.869003199878   37.3439331566 43.741264139278 
28.920045882425 37.396278390065 43.746456814661 28.922600874112 37.398914083586 43.746629353375 28.970144154913 37.449054161589 43.743666567008 
28.978793565864 37.458347870528 43.742158673037 29.015288503469 37.497959393914 43.733552330938 29.038925998078 37.523950199451 43.726091142627 
29.055977872204 37.542822932349 43.720014185391 29.088232988373 37.579010005427 43.705770102152 29.090059203427 37.581079746882 43.704845771262 
29.096171039481  37.58807782187 43.701350783918 29.118521998043  37.61361659514 43.688869293413 29.129267228815 37.626088551212 43.681774149991 
 29.14373348484 37.642866040708 43.672297806512 29.154271839132 37.655320535814 43.664084065601 29.171714599572 37.675860547521 43.650907706802 
29.197768001557 37.707214815185 43.627423608429 29.199954680168 37.709840912211 43.625483502762 29.201411046644 37.711621548784 43.624013165106 
29.228322747368 37.744318833357 43.598007357159 29.249361001758 37.770350062083 43.575027266005  29.25568095445 37.778112107715 43.568449877731 
 29.26367424693 37.788114710168 43.559085874959 29.282328469117 37.811380306731 43.537671481933 29.296344236598 37.829198302774 43.519679326417 
29.307897438436 37.843755939123 43.505579790287 29.320705451264 37.860236283036 43.488023293343  29.33240106498  37.87524100597 43.472241191316 
29.342227668311 37.888133179026 43.457372983907  29.35592021435 37.905899549062  43.43777038549 29.369911767236 37.924401236454 43.415781609589 
29.378554491644 37.935802793365 43.402351821908 29.386437169346 37.946342656347  43.38930839011 29.400876641807 37.965414701657 43.366739397595 
29.415956171103 37.985505356634 43.342193582802 29.422772579457 37.994550886158  43.33130140965 29.428906588877 38.002708984788 43.321397471941 
29.444947053797 38.023782895285  43.29696182886 29.462834043683 38.047335481283 43.269416054498 29.466520299468 38.052169128189 43.263853179056 
29.469838502499 38.056524993467 43.258818487661 29.488107969596 38.080224427806  43.23269495469 29.507032889404 38.104685997517 43.206130992443 
29.510234659402 38.108816596277 43.201681232631 29.515518124635 38.115596185758 43.194544703781 29.534222007973 38.139400375561 43.170386253341 
29.544669422222 38.152545091738 43.157746544102 29.561805054929 38.174212748403 43.136406523328 29.580472088492 38.197776932882 43.113384270421 
 29.59069153111 38.210383441965 43.102437462127 29.607898282326 38.231690942073 43.083546131397 29.618647368134 38.244959240378 43.071984451852 
 29.62596762279 38.253975381747  43.06422201707 29.646990618418 38.279404171585 43.044548285206 29.669385120321  38.30657031458 43.023148994382 
  29.6757228028  38.31423428436 43.017228790734 29.681480091653 38.321201578485 43.011821564528 29.706555281262 38.351064377177 42.990990605697 
29.736150319091 38.386452563783 42.965601150939 29.738403517876 38.389111605775 42.963866655215 29.742036496659 38.393419786754 42.960952563051 
29.770587840318  38.42722854112 42.938326900871  29.78857558025 38.448717788654 42.923005471626 29.802506268683 38.465142184034 42.912368941934 
29.824366553108 38.491222601629 42.893947465005 29.833741591703 38.502443565629 42.885843851059 29.840327005032 38.510461305573 42.879386712731 
29.864342517688 38.539233878309 42.858467722258 29.893576576226 38.575095581256 42.828285318085 29.893746672902  38.57530439587 42.828108827631 
 29.89390175594 38.575499064279 42.827923760016 29.922544201494 38.610940166719 42.796632014498 29.948773341329 38.644128143065 42.763844607346 
29.950132052998 38.645846691406 42.762149787493 29.951770288403 38.647963461617 42.759854479467 29.976387511274 38.679339255248 42.727800159549 
29.989701291035 38.696768157251  42.70787172986 29.999342819406 38.709516308595 42.692726640818 30.014803462202 38.730394615331 42.665982647958 
30.017925536004 38.734688244482 42.660144994614 30.031813085742 38.753618088495 42.635130735868 30.045486316273 38.772882812348 42.606967846433 
30.051115220693 38.780633074272 42.596391530422 30.059771769633 38.793062548561 42.577248398938 30.070458938124 38.808207389511  42.55474384551 
30.076681378801 38.817563502615 42.538606579374 30.089269346158 38.835877939719 42.509416259185 30.101623078764 38.855813964451 42.469706598102 
30.104868646159 38.860906855008 42.460089771997 30.107404084648 38.865442068847 42.449439128104 30.118380126027 38.884204049956 42.408243099481 
30.123834281778 38.895663914006 42.375726641772 30.128489683793 38.904646904084 42.352474074897 30.134441769877 38.920536339062 42.297916091782 
30.135063920956 38.922041132502 42.293093171433 30.135130350455 38.922426147161 42.291313527773 30.138258215522 38.936532140832 42.230194765534 
30.137820571481 38.938148538823 42.218508047142 30.135415288006 38.945827221045 42.161071061467 30.134667069866 38.946224189465 42.154431554396 
30.131788194157 38.947682779566 42.129272965705 30.128423375225 38.950074341095 42.095996196276 30.127526695132 38.950665297552 42.087389737458 
30.120539333541 38.951266365054 42.042895514533 30.116334798876 38.951740383666 42.015488548028 30.112221160975 38.951044111733 41.995213587752 
30.104250486786 38.950515903574 41.951300710389 30.103585782947 38.950331674207 41.948428890639 30.100049950581 38.949665975935 41.931380739883 
30.093544239468 38.948508482728  41.89963353302 30.092754221433 38.948459243717 41.895263524293 30.082273824462 38.945740712235 41.848933737373 
 30.07979983512 38.945385546887 41.836381719417 30.070169859628 38.942562267644 41.795645356213  30.06566086186  38.94164924343 41.774266436403 
30.057625490169 38.939089073562  41.74142771565 30.051203256173 38.937637973518 41.711826742776 30.044814714127 38.935463667933 41.686500897557 
 30.03645603279 38.933254527094 41.649781330414 30.031525548919 38.931407447065 41.631188404003 30.021099247114 38.928149319583 41.588218713596 
30.017655202235 38.926726830271 41.575976791037 30.004837185003 38.921998803807 41.527223171078 30.003000324556 38.921151541677 41.521193401678 
29.989076153571 38.915111941087 41.473326137108 29.987334512378 38.914355184517 41.467346325017 29.987121447918 38.914269258825 41.466577280119 
29.970972497195 38.906661358594 41.414462862478 29.968440122918  38.90554513146 41.405857701415 29.954326969116 38.898608356054  41.36193631081 
29.949059486175 38.896209964883  41.34446876107 29.937651221353 38.890535211456 41.309345526965 29.929315850455 38.886723851248  41.28179527316 
29.920927083415 38.882585710447 41.255773054207 29.909465816188 38.877345833094 41.217886489122 29.904071917762 38.874680897464 41.201177841243 
29.889479172268 38.867962109642 41.153206208951 29.887085550801 38.866772902403 41.145828724673 29.873789534149 38.860548402423 41.102699150516 
29.869919362481 38.858740524047 41.090122925263 29.869295185673 38.858466950519 41.087993180538 29.852610089325 38.850528200062 41.034589780859 
29.848973282813 38.848877366082 41.022501110113 29.835202995695 38.842142220824 40.979460115695 29.828036023016 38.838747079333 40.956437064577 
29.817789888761 38.833589308184 40.925236127542  29.80635543995 38.827936067682 40.889837581424 29.800294245441 38.824792360506  40.87190228462 
29.783891903526 38.816346483326 40.823021118274 29.782595994709 38.815654640135 40.819297561728 29.777904472256 38.813168139445 40.805715019234 
29.764540646158 38.806086639799 40.767017688654 29.761043471537 38.804239289097 40.756858278383 29.746177181164 38.796228085372 40.714563141348 
 29.73837586264 38.792049182668 40.692226599952 29.727421919489 38.786058324423 40.661558062594 29.715911434089 38.779815500844 40.629035854957 
29.708198693948 38.775540770842 40.607760616402 29.693445956476 38.767380536749 40.566973625681 29.688302255136 38.764470085856  40.55312089951 
29.670679287546 38.754462879665 40.505860605229 29.667659834708  38.75270742704 40.497993519774 29.647337893722 38.740793615077 40.445603577661 
29.646249833706 38.740138129399 40.442897813275 29.634258386599 38.732825947339 40.413574451865 29.623966510823 38.726535496731 40.388489669313 
29.623015119446 38.725939609354 40.386251937397 29.600611484017 38.711562412722 40.335502453202 29.597112015766 38.709249904354 40.327951780037 
29.576059663423 38.694963556956 40.284639592016 29.569016256322 38.690045208816 40.270930225574 29.550136384746 38.676481339442 40.236325666568 
29.538035852948 38.667542971466 40.215527859927 29.522885878649 38.656127027905 40.190757361183  29.50424744904 38.641836200821 40.161671250896 
29.494653274168 38.634368679413 40.147326454475 29.468312143158 38.613665656867   40.1090736824 29.465656969696 38.611553753548 40.105359026968 
29.455077691047 38.603098241399 40.090788574257 29.435714736522 38.587569168402  40.06442052441 29.430865828524 38.583675839917 40.057842802319 
29.404996859974 38.562752132408 40.023611772535 29.393194348939 38.553183824314 40.008118344397 29.373211672925 38.536837494847 39.982711660235 
29.355237980546 38.522064690699 39.960253167284 29.339948523268 38.509351020508 39.941977772366  29.31653667725 38.489702017722  39.91501582177 
29.304849772164 38.479759085773 39.902314354485 29.276539817966 38.455335036554 39.873455745712 29.267510461224 38.447417834507 39.864968689855 
   29.234640214 38.418130132878  39.83670024773  29.22777593514 38.411922863191 39.831310700724 29.190664465401 38.377811769663 39.805282519356 
29.185839067686 38.373320695361 39.802212774073 29.144971086316 38.334697461542 39.779521734103  29.14223718836 38.332086613057 39.778156652023 
29.098175944319 38.289408097971 39.759540832661 29.097844164311 38.289084117331  39.75941538371  29.09269931846 38.284003008748 39.757792558887 
29.053400597654 38.245174196951 39.745492198221 29.050864754992 38.242642151154 39.744848018332 29.009753450219 38.201430951656 39.735314657278 
29.003664001919 38.195273944421 39.734200003415 28.967301129274 38.158443467115 39.727905695343 28.956511343111 38.147441134276 39.726454027199 
28.926127582902 38.116462890563 39.722343378486 28.908903157677 38.098811457039 39.720520414886 28.886052389597 38.075416271374 39.717977552225 
28.859944807021 38.048563062029 39.715769125957 28.846685772529 38.034912442912 39.714720326286  28.80843756468 37.995354952109 39.712707787566 
28.807403416834 37.994282365003 39.712670505298 28.804405943668 37.991160035975 39.712638207071 28.767974832385 37.953092541752 39.712915886447 
28.754405110456 37.938845668742 39.713400607171 28.727728826725 37.910733691401 39.714942623266 28.699234411712 37.880547173397 39.717483580675 
28.686591466123 37.867101959709 39.718901229107 28.651603981218 37.829769090482 39.723530296531 28.644948025507 37.822643239468 39.724544602684 
28.642343430301 37.819847104644 39.724984706985 28.603369679667 37.777857351311 39.732415262751 28.582008954291 37.754824794247 39.736593902789 
28.561990635466  37.73311804803 39.741195778376 28.528558129071 37.696826031254 39.749105011371 28.521088955507 37.688692678028 39.751014837856 
28.515784337796  37.68290978312 39.752408269366 28.480742141922  37.64445527217 39.763038502121 28.443520999616  37.60349684452 39.774965561683 
 28.44033400235 37.599972234739 39.776086090046 28.436730994966 37.595962766247 39.777492570498 28.400759723367 37.555802044843 39.792275568701 
28.365926749507 37.516545232157 39.808659440356 28.361910332498 37.512000512545 39.810651248081 28.358316897678 37.507887463887 39.812697954589 
28.324589420432 37.469104323135 39.832915105521 28.290663873256 37.429544822363 39.856343603535 28.289007020658 37.427600301851 39.857558366699 
28.287077219623 37.425310422063 39.859114297793 28.255203747154 37.387363087936  39.88552665425 28.230532084794 37.357744445551 39.907355135826 
28.222465024313 37.347991532878 39.914877595529 28.212415414089 37.335815782302 39.924395195785 28.190567990354 37.309241165047 39.945678279146 
28.173610117168  37.28865599032 39.961961770004 28.158757730933 37.270563281649 39.976580831174 28.140853426507 37.248819233488 39.993829487626 
28.126891460802 37.231794806529 40.007664570881 28.114921801915 37.217228535851 40.019362813263 28.094931984687 37.192883910763  40.03900285769 
28.072883311033  37.16611056069  40.06022232659 28.062801128119 37.153835151874 40.070110108263 28.053555428896 37.142600508885 40.079051723045 
28.030543834072 37.114681508078  40.10106480897 28.006361781158 37.085457302329  40.12355005045 27.998437196819 37.075869686048  40.13097885633 
 27.99110295144 37.067042249136 40.137595202927 27.966557807624 37.037546499303 40.159475196887 
POLYGONS 1 450
449 0 1 2 3 4 5 6 7 8 9 10 11 12 13 14 15 16 17 18 19 20 21 22 23 24 25 26 27 28 29 30 31 32 33 34 35 36 37 38 39 40 41 42 43 44 45 46 47 48 49 50 51 52 53 54 55 56 57 58 59 60 61 62 63 64 65 66 67 68 69 70 71 72 73 74 75 76 77 78 79 80 81 82 83 84 85 86 87 88 89 90 91 92 93 94 95 96 97 98 99 100 101 102 103 104 105 106 107 108 109 110 111 112 113 114 115 116 117 118 119 120 121 122 123 124 125 126 127 128 129 130 131 132 133 134 135 136 137 138 139 140 141 142 143 144 145 146 147 148 149 150 151 152 153 154 155 156 157 158 159 160 161 162 163 164 165 166 167 168 169 170 171 172 173 174 175 176 177 178 179 180 181 182 183 184 185 186 187 188 189 190 191 192 193 194 195 196 197 198 199 200 201 202 203 204 205 206 207 208 209 210 211 212 213 214 215 216 217 218 219 220 221 222 223 224 225 226 227 228 229 230 231 232 233 234 235 236 237 238 239 240 241 242 243 244 245 246 247 248 249 250 251 252 253 254 255 256 257 258 259 260 261 262 263 264 265 266 267 268 269 270 271 272 273 274 275 276 277 278 279 280 281 282 283 284 285 286 287 288 289 290 291 292 293 294 295 296 297 298 299 300 301 302 303 304 305 306 307 308 309 310 311 312 313 314 315 316 317 318 319 320 321 322 323 324 325 326 327 328 329 330 331 332 333 334 335 336 337 338 339 340 341 342 343 344 345 346 347 348 349 350 351 352 353 354 355 356 357 358 359 360 361 362 363 364 365 366 367 368 369 370 371 372 373 374 375 376 377 378 379 380 381 382 383 384 385 386 387 388 389 390 391 392 393 394 395 396 397 398 399 400 401 402 403 404 405 406 407 408 409 410 411 412 413 414 415 416 417 418 419 420 421 422 423 424 425 426 427 428 429 430 431 432 433 434 435 436 437 438 439 440 441 442 443 444 445 446 447 448 

CELL_DATA 1
FIELD FieldData 6
ClosedSection 1 1 int
1 
SectionArea 1 1 double
        13.1518 
SectionLength 1 1 double
         13.537 
SectionMinSize 1 1 double
        1.72465 
SectionMaxSize 1 1 double
        2.73674 
SectionShapeFactor 1 1 double
       0.630185 
