# vtk DataFile Version 4.2
vtk output
ASCII
DATASET POLYDATA
POINTS 278 double
28.782805293939 24.489517405197 36.100461183144 28.790789665138 24.484606775427 36.092488833074 28.831733336299 24.460668861534 36.052922422591 
28.848419467045 24.450165727277 36.036006835308 28.886548412505 24.428542618217 35.999868335136  28.89316914592 24.424428242372 35.993212691396 
28.915814541505 24.411379389026 35.971530966933 28.929110846637 24.403660594095 35.958740054298 28.936294038679 24.399705747541 35.952057492762 
  28.9617288793 24.384985291005 35.927637057244 28.979666747209 24.374994689458 35.910828179524 28.999960974914 24.364140290359 35.892285786176 
29.026072528579 24.351382943545 35.869706584079 29.040373916497 24.343601396413 35.856499630505 29.056373361537 24.335995937137  35.84288821106 
29.082612922212 24.323820691498  35.82088024632 29.112055928955 24.313172021581 35.799372704498 29.126384029011 24.307177342718 35.788046678512 
29.139475390538 24.303300375409 35.779391102327 29.172177818506 24.293654539779 35.757810475603 29.216855917982 24.285814211448 35.733973559304 
 29.22134655097 24.285009427192 35.731559976064 29.232008019869 24.284207284355 35.727002409341 29.272503087088 24.280001625054  35.70846562973 
29.289783693881 24.279868146946 35.702312665356 29.326085320044 24.279357141273 35.689143097657 29.359798699005 24.282190318198 35.680411567303 
29.380503863115 24.283450079011  35.67454105427 29.426747657219 24.290441755138 35.665849332727 29.435002178295 24.291401855274 35.663993292136 
29.482972332663 24.300204818046 35.656617036792 29.489163369793 24.301291840707 35.655613127202 29.490215110005 24.301539859878 35.655509600917 
29.542900239408 24.311715081307 35.647944678568 29.551764838494 24.313872438517 35.647142903654 29.596646954999 24.322793635566 35.640966021525 
29.612697948353 24.326656895663 35.639468737505 29.650888896329 24.334212643497  35.63417522542 29.673242891468  24.33951322814 35.632005643627 
29.705912302851 24.345961833561 35.627461844509 29.733230102045 24.352415595278 35.624785277125 29.761489458543 24.358081017458 35.620947213526 
29.792354331476 24.365490500743 35.618047651834 29.817358480792 24.370769796373 35.614933585144 29.850002585331 24.378995919286 35.612278918919 
29.872793234957  24.38417038952 35.609824020152 29.906048444963 24.393212464496  35.60781990252 29.927333445486 24.398598808713 35.606112934126 
29.960914322612 24.408562929048 35.604970896207 29.980869416857 24.414115232541  35.60390214845 30.015764525512 24.425548467439 35.603856989296 
30.033703800129 24.430881886756 35.603257982441 30.072513248852  24.44473148373 35.604407184131 30.087406554336 24.449540684507 35.604313302958 
30.131235622794 24.466315090365 35.606810204053 30.142614938862 24.470272712612  35.60703797411 30.191482437734 24.490209927832 35.611127796944 
 30.19940472904   24.4931447618 35.611476288248 30.253282517224 24.516043996486 35.616956419293 30.258043830009 24.517919597621 35.617284087549 
30.316557837254 24.543980396328 35.624495748631 30.318282009374 24.544706772893 35.624664314926 30.357915334854 24.563540912144 35.630799744943 
  30.3802224364 24.574084312143 35.634192536122 30.381131280238 24.574565030211 35.634384880356 30.444249666118 24.607199314787 35.646948415436 
30.448055731933 24.609438263051 35.647992768502 30.508811837386  24.64507078174 35.664549771039 30.514560713568 24.648980794191 35.666685956374 
30.572863951182 24.689746705076 35.689526596256 30.573708473926 24.690401223312 35.689925169961 30.577520363934 24.693493725566 35.691870420287 
30.626654235421 24.732414304972 35.715948934021 30.638916270684 24.742788098454 35.722656895848 30.674765258501 24.774841768144 35.744093008881 
30.696058719566 24.795854262165 35.758913061427 30.717236726835  24.81800267396 35.774974898408 30.743411918187  24.84798425997 35.797584504501 
30.755741200099 24.863054226902 35.809236871345 30.783179099986  24.89995729066  35.83872900775 30.790787843385 24.910937628039 35.847697433805 
30.817009804802 24.952695238855 35.882747917573 30.822621562319 24.962382138333 35.891042826669 30.843934816258 25.004283266636 35.927952823636 
30.850036338276 25.018676885824 35.941056303887 30.863212298138 25.052942036919 35.972719550302  30.87133254366 25.082746622078 36.001423069255 
30.875852938813 25.099037357668 36.017083454528 30.881496364677 25.129150697213 36.046975249209 30.884651373739 25.143037969688 36.060568160772 
30.885743408733 25.150826302868 36.068427061093  30.89112980854 25.184611001378 36.102291982693 30.893745133503 25.217330463207 36.135994086192 
 30.89437964314 25.223671864371 36.142481533048  30.89459782624 25.231986392629 36.151201068627 30.896758783694 25.261297684634 36.181455944524 
30.896642319927 25.283182132296 36.204646702489 30.897035780525 25.297313585539 36.219458635794 30.896314439661 25.313698791923 36.237042508318 
30.896557500922 25.332680889434 36.257037969088 30.895623693037 25.348517417214 36.274115342853 30.895135955531 25.367336341661 36.294192430893 
30.893226343703 25.388058419751  36.31677740788  30.89291481486 25.401421874463 36.331022181132 30.891654842608 25.413637931755 36.344383146481 
30.890131745584 25.435225446496 36.367749151878 30.886558280019 25.457052902994 36.392082281795 30.885646017575 25.468196165989 36.404187437486 
30.883415623976 25.480873020111 36.418373452852  30.88037811722 25.501891401631 36.441664255806 30.876988543652 25.516840341918 36.458657042673 
30.873838097313  25.53706986886 36.481152654456 30.865250082868 25.568588524871 36.517482037553 30.864454054164 25.572144820112 36.521520959596 
30.863430466915 25.574634167337 36.524510387034 30.853683499157 25.606835168907 36.561964771783 30.840000356177 25.638886636824 36.600630333426 
30.839692795865  25.63986689489 36.601774286926 30.839131498301 25.641207227864 36.603387414902 30.827201360677 25.672812920133 36.640971562675 
30.817869359482 25.690654665043 36.663091790127 30.811956441969 25.705663585275 36.681025874576 30.792823983171 25.738579572155 36.722501726251 
30.792517427281 25.739333254408 36.723405649393 30.791680911134 25.740751886173 36.725197350994 30.774342011619 25.772649357911 36.764971813782 
 30.75852743917  25.79154174043 36.790458675157 30.751536978627 25.802624498855 36.804614376527 30.744039739624 25.811963027829 36.817101266058 
30.728606124726 25.830660727166 36.842249652133 30.713909949227  25.84921584547 36.866990661849 30.701145999929 25.862939590395 36.885948648255 
 30.68016918004 25.888696412047 36.920492885959 30.666823062269 25.901066658157  36.93822161847 30.636582079368 25.929088117506 36.978384398262 
 30.62967517945  25.93738392691  36.98956288386 30.624626290866 25.942611262367 36.996849030133 30.594241047949 25.972674903912 37.039222298422 
30.564825052813 25.998834134912 37.077128133078 30.556287273381 26.005949563057 37.087625332466 30.540216987175 26.018447181855 37.106436518304 
  30.5185628666  26.03812593751 37.134786762207 30.507321542278 26.047291157239 37.148392851533 30.478918739417 26.068008399876 37.180189453549 
30.457802077671 26.082607553905 37.202979315289 30.435786109849 26.095255904779 37.224018400076 30.412843184235 26.109039948162 37.246581345863 
30.389870699819 26.120696537342 37.266904069009 30.370598056851 26.130997073411 37.284505163924 30.337832501861 26.145230566374 37.310960758805 
30.327664258716 26.149605842195 37.319126539307 30.302005276179 26.157941222191 37.336870563219   30.2824361519 26.164887088369 37.351026097723 
30.272828970247 26.167229940492 37.356846711214 30.234313637671 26.175806462394  37.37931843188 30.191537447011 26.181762199119 37.400500095262 
30.183999833243 26.182596038795  37.40400443138 30.174611248705 26.183020318986 37.407719455039 30.132783611861 26.186256190689 37.425693943514 
30.098568816867 26.186862341342 37.438238169785 30.081204675812 26.186766273826 37.444177372456 30.062219494608   26.1857588684 37.449716470673 
30.029684858662 26.184858368259 37.460082389613  30.00036787717 26.182679723128 37.467976843109 29.978088634809  26.18052905174  37.47345252292 
29.955189614149 26.177361291783 37.478067901123 29.926378900752 26.174059134103 37.484597732184 29.898602115881 26.169833618267 37.489791103843 
29.874160340623 26.165679662214 37.493899954788 29.850220812096 26.160876422565 37.497147240588 29.821222398686 26.155823116656  37.50188993636 
29.790331329167 26.149406927512 37.505849357751 29.766492453682 26.144063322724 37.508490007484 29.745662978616 26.138626362695  37.50998495929 
29.709580364275 26.130510851785 37.513952861584 29.672154354908 26.121275430209 37.517203432633 29.651493982891 26.115659105601 37.518449816023 
29.621986197574 26.106905699343 37.519455603975 29.591994481186 26.098681515115 37.521189579308 29.576572019793 26.094191203864 37.521804883062 
29.531258019916 26.078904244267  37.52139805606 29.491932169064 26.065434890125 37.520830742002 29.472358855403 26.057979813098 37.519753842059 
29.429345783292 26.041227015062 37.516995920872 29.415000850841 26.035840260947 37.516288069108 29.408491616429 26.033300485228 37.515865896531 
29.358013610124 26.011948496078 37.510839750313 29.325368889147 25.997723973635 37.507149284808 29.299555049009 25.985569409069  37.50327210197 
29.242270326877 25.958006134594 37.494043405007 29.238973546871 25.956289401418 37.493374295981 29.232307966334 25.952713778399 37.491910754226 
29.180551802267 25.925865933348 37.481515531972 29.147616864914 25.907851177408 37.473916569994 29.125708624626 25.895501763525 37.468474545118 
  29.1010306954  25.88125417418 37.461988104145 29.072099292711 25.865216060961 37.455087320355 29.048371450443 25.851639072283 37.448979740895 
29.020308085971 25.835167358801  37.44131829486 28.975883187898  25.80875724366 37.428835640007 28.971541971421 25.806225975805  37.42766823367 
28.969638936903 25.805119190659 37.427159480613  28.92290624119 25.777004570839 37.413676594557 28.911449501048 25.770080437249 37.410337665656 
  28.8755709238 25.747526713728 37.398961268342 28.867437418887 25.742473802627  37.39644566989 28.842157168917 25.726209742098 37.388035667209 
28.823095359236 25.713983408675 37.381733594436 28.813257373037 25.707532155778 37.378331747815 28.777787472517 25.684451518148 37.366255784831 
 28.72953076797 25.651519327266 37.348206868838 28.720972538343 25.645769719201 37.345102034424 28.716461286798 25.642565540983 37.343281950329 
28.654599456616 25.596627508225   37.3162080357 28.645069125634 25.589350598234 37.311825745633 28.593402838054 25.547332592165    37.285351655 
28.579401960632 25.535760549282 37.277981064552  28.54169487132 25.500363080661   37.2536541643  28.53751859333 25.496444624511 37.250961954277 
28.535751786659  25.49457703473 37.249600999314 28.504939035652 25.462641592541 37.226537891071 28.484483801064 25.439717897468 37.209404482486 
28.477733375012 25.432269113001 37.203873273108 28.473460954855 25.427175817697 37.199971718372 28.451634419112 25.399697611142 37.178497429148 
28.430815170711 25.370792309698 37.155163075949 28.426607859794 25.364675660451 37.150156325698  28.42149193204 25.356300850554 37.143076902609 
28.403697712489 25.328232710911 37.119575752522 28.391812928109 25.306657256748  37.10088698526  28.38372628876 25.291000269651 37.087137668327 
28.375412242699 25.271978691696 37.069908265763 28.366817664439 25.253534885432 37.053387647729 28.360757888229 25.238057376191 37.039123062379 
28.353305118118 25.216397402893 37.018803029959  28.34358292227 25.183333850379 36.987209349347 28.342233069279 25.178965905983  36.98305836519 
28.341743817487 25.177183675405 36.981343256874  28.33390188654 25.136821741655 36.941374930547 28.333131212969  25.13249716033 36.937068326322 
28.329954940807 25.095979184071 36.899543151239 28.329244415873 25.087861682859 36.891203319969 28.329227350812 25.086716761954 36.889998113767 
28.329001301067 25.043177273318 36.844018947399 28.329692680899 25.034435274087  36.83453078731 28.332431466863 25.000849427546 36.798049541033 
28.335494839918 24.983023222915 36.778126551414 28.339225482425 24.960136667785 36.752618384308 28.346681640969 24.931063363082 36.719269553695 
28.348960698208 24.921163876867 36.708004619198 28.356739677065 24.897415315787 36.680176208438 28.361186578455 24.883700710291 36.664121315394 
28.363601297627 24.878002178129 36.657253122036 28.375558962099 24.847388517448 36.620708808491 28.387126296315 24.825053562145 36.593057831915 
28.393096959508 24.812702182934 36.577914911118 28.407166558898 24.790732558296 36.549779880593 28.413950990576 24.780027201627 36.536095085414 
28.418460747266 24.774324738756   36.5284938895 28.437372693507  24.74891902315 36.495039416531 28.459635123423 24.724021916287 36.460957367375 
28.463480069171 24.719430610705 36.454762879623 28.468943813974 24.713870929705 36.446980840277 28.491329230836 24.690929560954 36.414924862834 
28.513039584061 24.671465271004 36.386781926476 28.521455192099  24.66344641852 36.375371551119 28.531518094824 24.655113887285 36.363056275037 
28.554165120585 24.636186188314 36.335155106155 28.579826077383 24.617283218968 36.306231578067 28.589947134901 24.609318293928  36.29428493895 
28.604153353185 24.599475694562 36.278930830798 28.629512676639  24.58150969989 36.251103407373 28.642390804971 24.573527302677  36.23817912564 
28.680201695659 24.549952157246 36.200086331928 28.689487740178  24.54450642333 36.191095087051 28.734087711516 24.518108611028 36.147654504381 
28.736009932738 24.517016240863 36.145830228389 28.745141920683 24.511750709269 36.137083203593 
POLYGONS 1 279
278 0 1 2 3 4 5 6 7 8 9 10 11 12 13 14 15 16 17 18 19 20 21 22 23 24 25 26 27 28 29 30 31 32 33 34 35 36 37 38 39 40 41 42 43 44 45 46 47 48 49 50 51 52 53 54 55 56 57 58 59 60 61 62 63 64 65 66 67 68 69 70 71 72 73 74 75 76 77 78 79 80 81 82 83 84 85 86 87 88 89 90 91 92 93 94 95 96 97 98 99 100 101 102 103 104 105 106 107 108 109 110 111 112 113 114 115 116 117 118 119 120 121 122 123 124 125 126 127 128 129 130 131 132 133 134 135 136 137 138 139 140 141 142 143 144 145 146 147 148 149 150 151 152 153 154 155 156 157 158 159 160 161 162 163 164 165 166 167 168 169 170 171 172 173 174 175 176 177 178 179 180 181 182 183 184 185 186 187 188 189 190 191 192 193 194 195 196 197 198 199 200 201 202 203 204 205 206 207 208 209 210 211 212 213 214 215 216 217 218 219 220 221 222 223 224 225 226 227 228 229 230 231 232 233 234 235 236 237 238 239 240 241 242 243 244 245 246 247 248 249 250 251 252 253 254 255 256 257 258 259 260 261 262 263 264 265 266 267 268 269 270 271 272 273 274 275 276 277 

CELL_DATA 1
FIELD FieldData 6
ClosedSection 1 1 int
1 
SectionArea 1 1 double
        5.37092 
SectionLength 1 1 double
        8.32057 
SectionMinSize 1 1 double
        1.22157 
SectionMaxSize 1 1 double
        1.39937 
SectionShapeFactor 1 1 double
       0.872946 
