# vtk DataFile Version 4.2
vtk output
ASCII
DATASET POLYDATA
POINTS 357 double
13.498368570054 14.486927926181 21.416516404824 13.501468254979 14.494220256869 21.427866766807 13.502377353335 14.496375422886 21.431232636132 
13.514765796257 14.524153551874 21.473519704249 13.527664777972 14.552224983283 21.515633058233 13.529248444331 14.555882235231 21.521277947915 
  13.5316269234  14.56097211748 21.528849137833 13.545478816155 14.589427646388 21.570270610514 13.554814710448 14.607399387591 21.595471873112 
13.562683087475 14.623240337155 21.618274186396  13.57846174253 14.652401723858    21.658137391 13.581114224832 14.657439646528 21.665144107389 
13.598340029147 14.687371509295 21.704377829108 13.603583606964 14.696480667071 21.716315774456 13.618189745339 14.719999294969 21.745393728795 
13.631996710746 14.741710874931 21.771709792567 13.639568288851  14.75294618454 21.784630826106 13.656351703152 14.776878883667 21.811084619089 
13.663683537546 14.787364376321 21.822709590297 13.668160454222 14.793454575565 21.829104863885 13.691196672874 14.823313446884 21.858684211019 
13.717804115274 14.856588992979 21.890120716977 13.721135641412 14.860603197815 21.893714248543 13.727775714779 14.868353342835 21.900312545116 
13.753949902761 14.898987280233  21.92651114098 13.765619248952 14.912232081445 21.937262148595 13.788754791123 14.937610753974 21.956595567045 
 13.81354155317 14.964133647902 21.975807394879 13.823490754285 14.974480361403 21.982845093598 13.843120048008 14.994624667077 21.996124100999 
13.859006197013 15.010962789839 22.006950069855 13.866636483548  15.01873956812 22.011991005512 13.896770096505 15.048843318884 22.030529407354 
13.918689076147 15.070694037704 22.043909364203 13.937590075069 15.089210058117 22.054713062435 13.970008545532 15.120981251358 22.073272587587 
 13.98223206431 15.132768876408 22.079838764941 14.022065500451 15.171367889953 22.101655061735 14.031742587136 15.180544295446 22.106503158303 
 14.07204486203 15.219121078725 22.127503671258 14.089695195837 15.235519647941  22.13558426345 14.118063029336  15.26213369549  22.14915232555 
14.152970681728 15.293869396956 22.163566412823 14.163407695841  15.30346102208  22.16810787369   14.1933640371 15.330021711658 22.178961347961 
14.208232810469 15.343194532687 22.184324755896 14.213500069516 15.347678101804 22.185813085429 14.253673088618 15.382231692228  22.19796960159 
14.276712982181 15.401187736331 22.203003658436 14.300399751813 15.420900121201 22.208683495782  14.34533483639 15.456633829077 22.215718301001 
14.348368863263 15.459051585313 22.216204565056 14.354376650906 15.463614825505 22.216662714593 14.397531071558 15.496582343525 22.220379921805 
14.421383718029 15.513886421558 22.220368392862 14.447726273181 15.532815445487 22.219947431021 14.485344551246 15.558221452037 22.215687865352 
14.498386975762 15.567170278463 22.214527171437 14.508967263474  15.57400251161 22.212623986835 14.549466897012 15.599698849268 22.204311788596 
14.591099729377 15.624466649263 22.192058863381 14.601059459965 15.630551081151 22.189486131913 14.612283394944 15.636972182322 22.185606338906 
14.653130421037 15.659817199546 22.170309203915 14.684732895825 15.676269332473 22.155722463151 14.706830290425 15.688244407922 22.146583639027 
14.740861843238 15.705106228833 22.128951605604 14.760602445623 15.714717906954 22.118342743999 14.769843219254 15.718687129681 22.112183519164 
14.814121684742 15.738601228318 22.084685151307 14.837635070626 15.748114583248  22.06769294204 14.867678826579 15.760943900905 22.047498072616 
  14.8980969502 15.772872277305 22.024663979425 14.918474772904  15.78138388065 22.010538384289 14.953971791426 15.795310520566  21.98390652935 
14.966794786602 15.800694845948 21.975081508242 15.007249530384 15.817285768175 21.946348823211 15.014276190387  15.82036651016 21.941806160053 
15.059131330888 15.839540105236 21.911699243357 15.061161792362 15.840467562203 21.910470363721 15.083278967722 15.850306637308 21.896491678139 
15.107930919959 15.861311004929 21.880995722594 15.110084304429 15.862239802559 21.879569091543 15.154739209141 15.882927418588 21.853196865834 
15.160378849709 15.885420831356 21.849597689691 15.202053853402  15.90532991628 21.826340245058 15.209923568828 15.908867289029 21.821448379247 
15.250314016743 15.928803103232 21.800349146837 15.258826723385 15.932622304969 21.795041410127 15.304472991987 15.955170852257 21.771238448154 
15.308967142225 15.957204521734 21.768475433081 15.328116991847 15.966740127714 21.758660224342  15.36325822716 15.985323223623 21.743089877946 
15.373166400191 15.991998868377   21.7419320137 15.423905874235 16.016490987527 21.714184820731 15.431608367043 16.020337215555 21.710261226856 
15.433337786048 16.020942691815 21.708799346142 15.489503338484 16.048478359458 21.679039991318 15.497214684295  16.05104813197 21.672228984969 
15.546998056317 16.077428801763 21.650293995738 15.555214427804 16.079870259199 21.642369333867 15.605356573637 16.108913365554 21.625840780989 
15.610418376009 16.110082892447 21.620205676364 15.617230849922 16.116875557018 21.624367365731 15.612291261399 16.117786724954 21.634485935846 
15.616117325761  16.14066506135 21.679729754252 15.603323855146 16.146274486746 21.713250485406 15.603242192642 16.156986899653 21.737494581405 
15.591207202214 16.167285928911 21.780331512816 15.591066676979 16.172917025512 21.793235092675 15.579909771623 16.185001501412 21.838656409696 
 15.57911084381 16.190961293655 21.853375155972 15.569885612168 16.202167420852 21.893664566743  15.56716916048 16.212345548167 21.921009506138 
15.560147318785 16.220756307663 21.951408532783 15.553999493525     16.23479362 21.993043871911 15.549055411591 16.240475442076  22.01390722137 
15.539484974036  16.26057506587 22.074777286777 15.537550193466 16.263097108676 22.083613774198 15.527080713979 16.290962685154 22.163431275413 
15.525968279141 16.292259088272 22.168166053504 15.899878595546 15.809846299762 20.471682618421 15.911813706019 15.830607249227 20.498916354089 
15.919797705678 15.845221436164 20.518768714278 15.928441228168 15.862425138231  20.54337217426 15.943766617735 15.894628522067 20.590822398006 
 15.94397635843 15.895208635253 20.591785507094 15.945201172907 15.898413304583 20.596997865975   15.9572596708  15.92724310127 20.642190846893 
15.959498955984  15.93249064126 20.650344225313 15.963491594552 15.957284795681 20.699627963202 15.964118052512 15.959426071177 20.703424202446 
15.964890009771 15.983454194767  20.75624412012 15.965259972238 15.985185189728 20.759535861355 15.965583881314 16.007461288633 20.809144242233 
15.966036455558 16.012707159654 20.820212081103 15.960429377322 16.030533570544 20.869492450197 15.960166381775 16.032920576566 20.875294497166 
15.956634644072 16.035972093742 20.887930980751 15.948208276253 16.046527858192 20.925451826321 15.940085187064 16.050028323999 20.946597778511 
15.934220366393 16.055342868301 20.968138319182 15.922735369087 16.061981531673 21.001838467912 15.919421038714 16.066505556037 21.017434074063 
15.904987517185 16.074928490675 21.059965925074  15.90278076338 16.079526618128 21.073919323486 15.887767833412  16.09076753411 21.123740023245 
15.887118533876 16.095470261537 21.135385073395 15.870368316127 16.102383768335 21.178303450766 15.866545012044 16.105775155641 21.192181101652 
15.864786706329 16.105806153269 21.195122691728 15.852773273353 16.122710479545 21.252791134219 15.841072851476 16.121988940551 21.270277327183 
15.845456217222 16.145176752003 21.315307454775 15.818141137044 16.138253691016 21.344338977378 15.852212771942 16.157400436506 21.331784219843 
15.857782655201 16.157685925011 21.323329542748 15.903814604274 16.176368523011 21.290195456156 15.904615014314 16.176488976451 21.289159262377 
15.907600500562 16.177524821519 21.286614502501 15.942223627658 16.185965819021  21.24906328181 15.957453183869 16.194019553448 21.242315760126 
15.985323069469 16.201531047946 21.213702482676 16.010734367897 16.212721507452 21.197385136744 16.029785374166 16.218799769076   21.1799498294 
16.061501669041 16.232699333314 21.159432052056 16.077258389553  16.23921412532 21.148359778941 16.109333133656 16.254831701283 21.131123325568 
16.129898755771 16.264855891578 21.120095419917 16.153578962269 16.277409114872  21.10967265818 16.186260086081 16.295516467533 21.097049618732 
16.194734121552 16.300633501312 21.094726108931 16.211561939016 16.310937388987 21.090432644138 16.236932672982  16.32618376941 21.083310322635 
15.899878595546 15.809846299762 20.471682618421 15.911813706019 15.830607249227 20.498916354089 15.919797705678 15.845221436164 20.518768714278 
15.928441228168 15.862425138231  20.54337217426 15.943766617735 15.894628522067 20.590822398006  15.94397635843 15.895208635253 20.591785507094 
15.945201172907 15.898413304583 20.596997865975   15.9572596708  15.92724310127 20.642190846893 15.959498955984  15.93249064126 20.650344225313 
15.963491594552 15.957284795681 20.699627963202 15.964118052512 15.959426071177 20.703424202446 15.964890009771 15.983454194767  20.75624412012 
15.965259972238 15.985185189728 20.759535861355 15.965583881314 16.007461288633 20.809144242233 15.966036455558 16.012707159654 20.820212081103 
15.960429377322 16.030533570544 20.869492450197 15.960166381775 16.032920576566 20.875294497166 15.956634644072 16.035972093742 20.887930980751 
15.948208276253 16.046527858192 20.925451826321 15.940085187064 16.050028323999 20.946597778511 15.934220366393 16.055342868301 20.968138319182 
15.922735369087 16.061981531673 21.001838467912 15.919421038714 16.066505556037 21.017434074063 15.904987517185 16.074928490675 21.059965925074 
 15.90278076338 16.079526618128 21.073919323486 15.887767833412  16.09076753411 21.123740023245 15.887118533876 16.095470261537 21.135385073395 
15.870368316127 16.102383768335 21.178303450766 15.866545012044 16.105775155641 21.192181101652 15.864786706329 16.105806153269 21.195122691728 
15.852773273353 16.122710479545 21.252791134219 15.841072851476 16.121988940551 21.270277327183 15.845456217222 16.145176752003 21.315307454775 
15.818141137044 16.138253691016 21.344338977378 15.852212771942 16.157400436506 21.331784219843 15.857782655201 16.157685925011 21.323329542748 
15.903814604274 16.176368523011 21.290195456156 15.904615014314 16.176488976451 21.289159262377 15.907600500562 16.177524821519 21.286614502501 
15.942223627658 16.185965819021  21.24906328181 15.957453183869 16.194019553448 21.242315760126 15.985323069469 16.201531047946 21.213702482676 
16.010734367897 16.212721507452 21.197385136744 16.029785374166 16.218799769076   21.1799498294 16.061501669041 16.232699333314 21.159432052056 
16.077258389553  16.23921412532 21.148359778941 16.109333133656 16.254831701283 21.131123325568 16.129898755771 16.264855891578 21.120095419917 
16.153578962269 16.277409114872  21.10967265818 16.186260086081 16.295516467533 21.097049618732 16.194734121552 16.300633501312 21.094726108931 
16.211561939016 16.310937388987 21.090432644138 16.236932672982  16.32618376941 21.083310322635 15.899878595546 15.809846299762 20.471682618421 
15.911813706019 15.830607249227 20.498916354089 15.919797705678 15.845221436164 20.518768714278 15.928441228168 15.862425138231  20.54337217426 
15.943766617735 15.894628522067 20.590822398006  15.94397635843 15.895208635253 20.591785507094 15.945201172907 15.898413304583 20.596997865975 
  15.9572596708  15.92724310127 20.642190846893 15.959498955984  15.93249064126 20.650344225313 15.963491594552 15.957284795681 20.699627963202 
15.964118052512 15.959426071177 20.703424202446 15.964890009771 15.983454194767  20.75624412012 15.965259972238 15.985185189728 20.759535861355 
15.965583881314 16.007461288633 20.809144242233 15.966036455558 16.012707159654 20.820212081103 15.960429377322 16.030533570544 20.869492450197 
15.960166381775 16.032920576566 20.875294497166 15.956634644072 16.035972093742 20.887930980751 15.948208276253 16.046527858192 20.925451826321 
15.940085187064 16.050028323999 20.946597778511 15.934220366393 16.055342868301 20.968138319182 15.922735369087 16.061981531673 21.001838467912 
15.919421038714 16.066505556037 21.017434074063 15.904987517185 16.074928490675 21.059965925074  15.90278076338 16.079526618128 21.073919323486 
15.887767833412  16.09076753411 21.123740023245 15.887118533876 16.095470261537 21.135385073395 15.870368316127 16.102383768335 21.178303450766 
15.866545012044 16.105775155641 21.192181101652 15.864786706329 16.105806153269 21.195122691728 15.852773273353 16.122710479545 21.252791134219 
15.841072851476 16.121988940551 21.270277327183 15.845456217222 16.145176752003 21.315307454775 15.818141137044 16.138253691016 21.344338977378 
15.852212771942 16.157400436506 21.331784219843 15.857782655201 16.157685925011 21.323329542748 15.903814604274 16.176368523011 21.290195456156 
15.904615014314 16.176488976451 21.289159262377 15.907600500562 16.177524821519 21.286614502501 15.942223627658 16.185965819021  21.24906328181 
15.957453183869 16.194019553448 21.242315760126 15.985323069469 16.201531047946 21.213702482676 16.010734367897 16.212721507452 21.197385136744 
16.029785374166 16.218799769076   21.1799498294 16.061501669041 16.232699333314 21.159432052056 16.077258389553  16.23921412532 21.148359778941 
16.109333133656 16.254831701283 21.131123325568 16.129898755771 16.264855891578 21.120095419917 16.153578962269 16.277409114872  21.10967265818 
16.186260086081 16.295516467533 21.097049618732 16.194734121552 16.300633501312 21.094726108931 16.211561939016 16.310937388987 21.090432644138 
16.236932672982  16.32618376941 21.083310322635 15.899878595546 15.809846299762 20.471682618421 15.911813706019 15.830607249227 20.498916354089 
15.919797705678 15.845221436164 20.518768714278 15.928441228168 15.862425138231  20.54337217426 15.943766617735 15.894628522067 20.590822398006 
 15.94397635843 15.895208635253 20.591785507094 15.945201172907 15.898413304583 20.596997865975   15.9572596708  15.92724310127 20.642190846893 
15.959498955984  15.93249064126 20.650344225313 15.963491594552 15.957284795681 20.699627963202 15.964118052512 15.959426071177 20.703424202446 
15.964890009771 15.983454194767  20.75624412012 15.965259972238 15.985185189728 20.759535861355 15.965583881314 16.007461288633 20.809144242233 
15.966036455558 16.012707159654 20.820212081103 15.960429377322 16.030533570544 20.869492450197 15.960166381775 16.032920576566 20.875294497166 
15.956634644072 16.035972093742 20.887930980751 15.948208276253 16.046527858192 20.925451826321 15.940085187064 16.050028323999 20.946597778511 
15.934220366393 16.055342868301 20.968138319182 15.922735369087 16.061981531673 21.001838467912 15.919421038714 16.066505556037 21.017434074063 
15.904987517185 16.074928490675 21.059965925074  15.90278076338 16.079526618128 21.073919323486 15.887767833412  16.09076753411 21.123740023245 
15.887118533876 16.095470261537 21.135385073395 15.870368316127 16.102383768335 21.178303450766 15.866545012044 16.105775155641 21.192181101652 
15.864786706329 16.105806153269 21.195122691728 15.852773273353 16.122710479545 21.252791134219 15.841072851476 16.121988940551 21.270277327183 
15.845456217222 16.145176752003 21.315307454775 15.818141137044 16.138253691016 21.344338977378 15.852212771942 16.157400436506 21.331784219843 
15.857782655201 16.157685925011 21.323329542748 15.903814604274 16.176368523011 21.290195456156 15.904615014314 16.176488976451 21.289159262377 
15.907600500562 16.177524821519 21.286614502501 15.942223627658 16.185965819021  21.24906328181 15.957453183869 16.194019553448 21.242315760126 
15.985323069469 16.201531047946 21.213702482676 16.010734367897 16.212721507452 21.197385136744 16.029785374166 16.218799769076   21.1799498294 
16.061501669041 16.232699333314 21.159432052056 16.077258389553  16.23921412532 21.148359778941 16.109333133656 16.254831701283 21.131123325568 
16.129898755771 16.264855891578 21.120095419917 16.153578962269 16.277409114872  21.10967265818 16.186260086081 16.295516467533 21.097049618732 
16.194734121552 16.300633501312 21.094726108931 16.211561939016 16.310937388987 21.090432644138 16.236932672982  16.32618376941 21.083310322635 
15.899878595546 15.809846299762 20.471682618421 15.911813706019 15.830607249227 20.498916354089 15.919797705678 15.845221436164 20.518768714278 
15.928441228168 15.862425138231  20.54337217426 15.943766617735 15.894628522067 20.590822398006  15.94397635843 15.895208635253 20.591785507094 
15.945201172907 15.898413304583 20.596997865975   15.9572596708  15.92724310127 20.642190846893 15.959498955984  15.93249064126 20.650344225313 
15.963491594552 15.957284795681 20.699627963202 15.964118052512 15.959426071177 20.703424202446 15.964890009771 15.983454194767  20.75624412012 
15.965259972238 15.985185189728 20.759535861355 15.965583881314 16.007461288633 20.809144242233 15.966036455558 16.012707159654 20.820212081103 
15.960429377322 16.030533570544 20.869492450197 15.960166381775 16.032920576566 20.875294497166 15.956634644072 16.035972093742 20.887930980751 
15.948208276253 16.046527858192 20.925451826321 15.940085187064 16.050028323999 20.946597778511 15.934220366393 16.055342868301 20.968138319182 
15.922735369087 16.061981531673 21.001838467912 15.919421038714 16.066505556037 21.017434074063 15.904987517185 16.074928490675 21.059965925074 

POLYGONS 1 358
357 0 1 2 3 4 5 6 7 8 9 10 11 12 13 14 15 16 17 18 19 20 21 22 23 24 25 26 27 28 29 30 31 32 33 34 35 36 37 38 39 40 41 42 43 44 45 46 47 48 49 50 51 52 53 54 55 56 57 58 59 60 61 62 63 64 65 66 67 68 69 70 71 72 73 74 75 76 77 78 79 80 81 82 83 84 85 86 87 88 89 90 91 92 93 94 95 96 97 98 99 100 101 102 103 104 105 106 107 108 109 110 111 112 113 114 115 116 117 118 119 120 121 122 123 124 125 126 127 128 129 130 131 132 133 134 135 136 137 138 139 140 141 142 143 144 145 146 147 148 149 150 151 152 153 154 155 156 157 158 159 160 161 162 163 164 165 166 167 168 169 170 171 172 173 174 175 176 177 178 179 180 181 182 183 184 185 186 187 188 189 190 191 192 193 194 195 196 197 198 199 200 201 202 203 204 205 206 207 208 209 210 211 212 213 214 215 216 217 218 219 220 221 222 223 224 225 226 227 228 229 230 231 232 233 234 235 236 237 238 239 240 241 242 243 244 245 246 247 248 249 250 251 252 253 254 255 256 257 258 259 260 261 262 263 264 265 266 267 268 269 270 271 272 273 274 275 276 277 278 279 280 281 282 283 284 285 286 287 288 289 290 291 292 293 294 295 296 297 298 299 300 301 302 303 304 305 306 307 308 309 310 311 312 313 314 315 316 317 318 319 320 321 322 323 324 325 326 327 328 329 330 331 332 333 334 335 336 337 338 339 340 341 342 343 344 345 346 347 348 349 350 351 352 353 354 355 356 

CELL_DATA 1
FIELD FieldData 6
ClosedSection 1 1 int
1 
SectionArea 1 1 double
        7.69048 
SectionLength 1 1 double
        10.1104 
SectionMinSize 1 1 double
        1.41291 
SectionMaxSize 1 1 double
        1.75474 
SectionShapeFactor 1 1 double
       0.805195 
