# vtk DataFile Version 4.2
vtk output
ASCII
DATASET POLYDATA
POINTS 331 double
45.201039506719  32.99406055973 37.588035223554 45.204622314394 33.041993603235 37.581537855713 45.205341448811 33.053138830459 37.579961452401 
45.205710803959 33.062138769144 37.578566676258 45.210612648719   33.1118023148 37.572520365477 45.214259482874 33.159442596781 37.566112191997 
45.215623849298 33.169473602502 37.565106672489 45.217571920176 33.187760669385 37.562962785411  45.22182533035 33.225782141723  37.55862237338 
45.223735891251 33.245982992777 37.556115014012 45.228838652499 33.280926834491 37.552813840765 45.234675413719 33.325971148947 37.548131453499 
45.236317665213 33.334556175399 37.547544373642 45.239686468892 33.353967173402 37.546018502185 45.245651285431 33.386927385964 37.543568470253 
45.248142173939 33.401871438463 37.542334568921 45.256434827823 33.437148713188 37.540812198688 45.265144369776 33.474582076587 37.539144947477 
45.268305223401 33.485068489324 37.539093411138 45.272384950677 33.498112457714 37.539114579419 45.283023628213 33.532789110492 37.539051531158 
45.295795603365 33.573890439121 37.539070295837 45.299799924899    33.584807337 37.539427960938 45.303283675555 33.594000346542 37.539793550721 
45.320224737017 33.640368377908 37.541274217542 45.340598996426 33.693931312911 37.543448257331 45.342607698662 33.699695012906 37.543576333479 
45.346242778681 33.709049551037 37.544000282227 45.367466722429 33.757953439023 37.547496237713  45.38393625363 33.792919167389 37.550741925183 
  45.3948228464 33.817716333656 37.552586503105 45.411603987803 33.851910830577 37.556149537633 45.425700824066 33.878600195386  37.55950620817 
45.438007380896 33.899537892434 37.562858532266 45.460113234734 33.938780332184 37.568588543105 45.498097555518 33.996738824816 37.580126248797 
 45.49863681528 33.997581781715 37.580286453485 45.499917233328 33.999358578951 37.580706984465 45.539874567043 34.054564059405 37.593873519367 
45.559020612132 34.079291649425 37.600490521121 45.580758178983 34.106825643868 37.608099738135 45.616022020822 34.148858937159 37.620914290207 
45.621293221394 34.155102942052 37.622836777282 45.624985782279  34.15930046619 37.624215038563 45.662611972265 34.200768029756  37.63849208784 
45.704397427064 34.244187287567 37.654817531547 45.705242894897 34.245045573372 37.655151468492 45.706002650859  34.24576649812 37.655460545422 
45.749712779626 34.286865410416 37.673309673893 45.780910031185 34.314213762606 37.686403751913 45.799348767545 34.330374934721 37.694143325325 
45.818883234033 34.346657632116 37.702492669935 45.848808298031 34.370516846619 37.715476831797 45.890725320327  34.40305960247  37.73382094408 
45.893821535217 34.405442319849 37.735179700725 45.895818631074 34.406933076572 37.736064354252 45.938754573155 34.437561681518 37.755337599507 
45.968822284117 34.458489527044 37.768927593921 45.981951189191 34.467069995762 37.774961188478 46.000753090491 34.479133309649 37.783642048255 
46.025369261008 34.494763404477 37.795036596869 46.042621103532 34.505335594172 37.803090500191  46.06888291459 34.520305803785 37.815551319847 
46.102723217141 34.538587925552 37.831788091913 46.112296352567 34.543736603532 37.836385477959 46.120129893914 34.547633646942 37.840203897182 
46.156439590114 34.564277812065 37.858156387207 46.201432346831 34.582810476168 37.880775663652 46.201527882004 34.582847476235  37.88082411218 
46.201639002467 34.582885853593 37.880881296627 46.247851257358 34.598803217504 37.904670545867 46.292420546171 34.612396439132 37.927928095496 
46.295786008403 34.613378294461 37.929692254605 46.298835770451 34.614134854943 37.931314716811 46.344756771566 34.625529364889  37.95574402114 
46.382521732618 34.633191475212 37.976139637427 46.394788025972 34.635720306966 37.982757091493 46.424445346804 34.640009816655 37.999082642915 
46.447746656353 34.643288247766 38.011925775384 46.456404903713 34.643905128535 38.016805408062 46.502346931389 34.647293688531 38.042676915003 
46.526203332303 34.647135214577 38.056453878161 46.558437478073 34.647140950277  38.07502967754 46.601818353245 34.642917906703 38.100784813202 
46.610387542488 34.641914744233 38.105902505575 46.620775065647 34.639952663568   38.1122394093 46.660736956007 34.632935945032 38.136523181578 
46.689024643607 34.626573611552 38.153962115995 46.709171980218 34.621661071156 38.166450720705 46.730794769329 34.614986621667 38.180104367624 
46.756244793639 34.607733181371 38.196067107939 46.782066707072 34.599145235525 38.212482550973  46.80403221386 34.591284132574 38.226545678364 
46.821011322948 34.584284693658 38.237581183454 46.852174352287 34.572333025821 38.257675613017 46.883258747129 34.558606236326 38.278041810808 
46.900623296085 34.550274770811 38.289537385223 46.919711875847 34.540148627112 38.302347113198 46.948336088374  34.52575863477 38.321413952545 
46.971429725225 34.513259520416 38.336955708828 46.994108017558 34.500022406988 38.352389925497 47.019054848983 34.484168468958 38.369598958841 
47.038097312554 34.472699939816 38.382621896937 47.054202902248 34.462182686851 38.393782364262 47.080800534166 34.443637764813 38.412423452979 
47.107716493429 34.423476475673 38.431536724584 47.123189491982  34.41267655783 38.442383115817 47.139432513198 34.400862990534 38.453854343858 
47.166552025361 34.379999073784 38.473210433591 47.186794060512 34.363071236707 38.487899879308 47.209707604568 34.345917419919 38.504169305536 
47.246945635989 34.313982988365 38.531334288749 47.253116849148 34.309510123491 38.535689791378 47.294224278528 34.274611965071 38.565614146792 
47.297917500983 34.271919021947 38.568223617999 47.337276321878 34.238305055791  38.59691084247 47.342053917156 34.234797130716 38.600290825738 
47.377514623276 34.204164310201 38.626199016776 47.385588294509 34.198231878358 38.631911642019 47.417110053786 34.171595184536 38.654835963961 
47.431116248722 34.161774499017 38.664662105202 47.456785262559 34.140749414496 38.683211048929 47.478516197697 34.125544645161 38.698450773195 
47.496588506395 34.110606954214 38.711534291001  47.52685775361 34.088705719878  38.73289089467 47.536046198939 34.080634081205 38.739628095808 
47.574265029177 34.050672087639 38.767005989915 47.574957375146 34.049991655598 38.767526539078 47.578849060595 34.046495913035 38.770393788523 
47.612736204324 34.016905778185 38.795208869014 47.619975458122 34.011379055603 38.800368141161 47.649415028977 33.981162885377  38.82273187327 
47.662158687221 33.970098517692 38.832052559571 47.684711203917 33.941822429853 38.850100668772 47.699460034588 33.926662007176 38.861308622799 
47.718119428829 33.897154394854 38.877333075465  47.73103981788 33.881185988443 38.887631610695 47.748268852798  33.84416478671 38.904173870168 
47.754623369465 33.833339217264 38.909769781552 47.761890554105 33.803794218152 38.919235481162 47.768236906017 33.783192424015 38.926572992135 
47.768823462591 33.769672863887 38.929325998481 47.772137853587 33.731225617671 38.938103856436 47.767569184851 33.701210828528 38.940832366367 
47.766546188498 33.677869213455 38.944412264659 47.754994447462 33.624359576841  38.94731319984 47.754946145546  33.62391433181 38.947364896136 
47.754656225573 33.622666269832 38.947420751187 47.742861826777 33.569475281136  38.95012492119 47.738002413747 33.554481206343 38.950002756215 
47.729576554655  33.51451580562 38.952285788501   47.7208258917 33.484961569888 38.952521910474 47.715818734863 33.458906356838 38.954290425661 
47.704238938483 33.414184098799 38.955605522645 47.702383628954  33.40287383718 38.956556617891 47.694088053588 33.365210096027 38.958503593575 
47.690190841339 33.346771368061 38.959551264081 47.688863449804 33.341827831653 38.959669329354 47.680290244377 33.290829334921 38.963838261745 
47.675390015047 33.269339314693 38.964852930084 47.670297696748 33.235044314936 38.968044220517  47.66239774722 33.197843618628  38.97013648622 
47.659644755614 33.178999107781 38.971916065307 47.648632859731 33.127636911429 38.974744525616 47.647798032575 33.122477020891 38.975185106958 
47.642013428668 33.097976837398 38.976227801077 47.634386262719  33.06544251783 38.977643730002 47.632320110341 33.058440803609 38.977703688522 
47.619625577302  33.00760650568 38.979468132816 47.614449415704 32.989863485357 38.979654460785 47.604321325408 32.948887815212 38.981136944291 
47.596883694218 32.921348796249 38.981769804475 47.589480905353 32.889205086155  38.98324527021 47.580841932588 32.853054650578 38.984724024561 
 47.57591318413 32.828563078514 38.986258417522 47.566598436284 32.785139461724 38.988646908691 47.563431175786 32.767350637914 38.989999165944 
47.553876780701 32.718181426742 38.993275868876 47.551881809297 32.706024411685 38.994297729406  47.54198254478 32.652708319557 38.998116429038 
47.540750606987 32.645024323974 38.998779027202 47.530348009634 32.588992252894 39.002792800865 47.529572161143 32.584264287721 39.003190218278 
47.518789177275    32.527062551 39.007193706561 47.518176908235 32.523510007553 39.007475433325 47.506926965125 32.466349826923 39.011202385787 
47.506177298695  32.46222670489 39.011506850385 47.494583162869 32.406230436321 39.014827534542 47.493350839889  32.39987142448 39.015253231856 
47.481590409801 32.346375084364 39.018031522564 47.479519426009 32.336454453216 39.018610096258 47.467614956948  32.28654512515 39.020664636141 
47.464310924581  32.27213585249  39.02133438894 47.452439113846 32.226904419508 39.022572148237 47.447438916226 32.207315567521 39.023189602561 
47.435932126827 32.167718742833 39.023631229494 47.428801984588 32.142698842008 39.023991313883 47.417938310037 32.108948213194 39.023759280794 
47.408673760614 32.079757523012 39.023634306117 47.398401943446 32.050963810284 39.022857922922 47.387938941279 32.020962391977 39.022187087846 
47.378225698975 31.996082216494 39.021033549948 47.367199048613 31.967733006684 39.019742749136 47.357876415211 31.946106759245 39.018233080768 
47.346050207063 31.918964494392 39.016265893856 47.338795445596 31.903370991347 39.014870342863 47.313167379319 31.854263468519 39.008872627358 
47.313009689785 31.853954430047 39.008836952328 47.312938892055 31.853829249808 39.008818511634 47.282889216285 31.803736960369 39.000448490027 
47.266271345364 31.778821732717 38.995322014743 47.245753360845  31.74870442813 38.988877104714 47.229893919495 31.728927633048 38.983269852472 
47.196329295197 31.688790275158 38.971095907858 47.186655588408 31.678109449599 38.967428756714 47.144946752517 31.634052323055 38.951261410218 
47.143016068661 31.632168452288 38.950485251593 47.121474498866 31.612573276248  38.94157089616 47.098514349218 31.591553536573 38.932093467178 
47.096447143832 31.589838416378  38.93120848645 47.051166429765 31.554269753132 38.911466359809  47.04692537893 31.551261207905 38.909559614282 
47.000982288351  31.52041482372 38.888592224107 46.995973426938 31.517403932343 38.886243401625  46.94844269362 31.490032544192 38.863740308148 
46.943307702434 31.487398514254 38.861251478049 46.894335575131 31.462920250741 38.837400904099 46.889567122577 31.460790800947 38.835033181448 
46.839435137984 31.438909946552 38.810050202118 46.835240748357 31.437281177244 38.807923881591 46.784058482125 31.417871355502 38.781894220642 
46.780948247856 31.416838338691 38.780286290531 46.728449599663 31.399838236446  38.75306754422 46.727221048359 31.399500133434 38.752419913793 
46.705272499393 31.393636450787 38.740818186901 46.674124395819  31.38531057961 38.724354490338 46.672376221848 31.384854062954 38.723428548725 
46.621717654707 31.373708389262 38.696224494041 46.615683870822 31.372405123596 38.692979970316 46.570039534421 31.364263589025 38.668129038645 
46.557637255632  31.36207801312 38.661371899948   46.5188984604  31.35665569891 38.640014964653 46.496159665007 31.353613928201 38.627453739963 
46.466779328154 31.350745157504 38.611034033456 46.427419032299 31.347174672741 38.588988133716 46.412814336784 31.346345037018 38.580719514195 
46.359377207893 31.344078078379 38.550328164861 46.353235655613 31.344110252361 38.546782986677 46.295787946706 31.344472799552 38.513610601822 
46.290412836782  31.34475673819 38.510462159008 46.233543693641 31.348208885238 38.477071318465 46.227735037055 31.348877341857 38.473604333285 
46.174253504912  31.35510699081 38.441669664075 46.166680166985 31.356371145716 38.437079269152 46.120172092729 31.363826467969 38.408944526273 
46.094526019365 31.369263924728 38.393193186203 46.070927133035 31.374003495799 38.378746319916 46.047501287176 31.379608418425 38.364244602587 
46.021463616624 31.385994081558 38.348098205616 45.990002553642 31.394760967558 38.328400907033 45.972235320174 31.399454778896 38.317323047941 
45.957812697816 31.403685200737 38.308255492102 45.923424536344 31.414311465164  38.28653914413  45.87646519066 31.430439853962 38.256595079174 
45.874695700393 31.431025278678 38.255470733149 45.873425618393  31.43149264688 38.254655288705 45.826060674191 31.449810761293  38.22408632797 
45.788762066429 31.465899411812 38.199716930271 45.776844635257 31.471282968967 38.191887156354 45.761913747043 31.478853281221  38.18193008529 
45.727043604019 31.496020001467 38.158767660177 45.696827265369 31.512485832629 38.138412462017 45.675777392553 31.524584852802 38.124120012986 
45.656552687969 31.537104417428 38.110804303678 45.625229518029 31.556420159581 38.089302155648 45.578757298146 31.589818225898 38.056553981989 
45.575347107669 31.592050920621 38.054189837756 45.559666037461 31.604143402019 38.042992645265  45.52481751626 31.631075732466 38.018098272033 
45.518496070259 31.636682640809 38.013453617252 45.476505237244  31.67052234727 37.983209217384 45.461845777312 31.684542370399  37.97225647551 
45.431858484837 31.709517377178 37.950513303804 45.400045578438 31.741915847296 37.926391978066 45.396702818756 31.744942323789 37.923924903347 
45.393520410698 31.748381312035 37.921476554646   45.3658333584 31.780165468021 37.899842728748 45.351920112662 31.796991936975 37.888818727629 
45.335544178329 31.819993233158 37.875272461753  45.31977240123 31.843018079334 37.862070170366 45.305203559575 31.868217952559 37.849172621151 
45.290747999188  31.89315884046 37.836386618902 45.275069669699 31.925083011167 37.821648515891 45.263483298485 31.947731631415 37.810925515406 
 45.24571259258 31.988406013076 37.793418526834  45.23794958092 32.004645033202 37.786043894792 45.217938924413 32.059108236316 37.764782936696 
45.217599769097 32.059963608796 37.764434685221 45.217228346288 32.061566178754 37.763934367499 45.202934116125 32.113337868366 37.746448615575 
45.195815486986 32.156452134071  37.73464468227 45.194186618432 32.166299691042  37.73194690395 45.193595043072 32.176393621991 37.729802917662 
45.188420571982  32.21845837095 37.719306892688 45.186127395149 32.258444682596 37.710842649713 45.185507581246 32.270221360814 37.708381803947 
45.185299031232 32.281362153544 37.706271559998 45.182206642991 32.322570744661 37.697128391374 45.180586258534 32.362691701633 37.689027833217 
45.180074489167 32.375454401008 37.686453123735 45.180091975154 32.387168062732 37.684370816038 45.177958486379 32.428606620386 37.675739191271 
 45.17742383432 32.473561713116 37.667400839531 45.177336565641 32.482282931555 37.665792694199 45.177679464967 32.489669628384 37.664670841094 
45.177314110994 32.536024563857 37.656180006584 45.178826553487 32.588779637634 37.647628120523 45.178884155129 32.590328444181 37.647384657033 
45.178980695289 32.591662330094 37.647202024945 45.180099479177 32.644900022311 37.638337060895 45.182390934371 32.694916827797  37.63072325746 
45.182424455614 32.700591190139 37.629728977478 45.182577874135 32.707177869459 37.628640830231 45.184795048298 32.757387935982 37.620949696196 
45.187549304111 32.801229296773 37.614705714645  45.18798885978 32.815596056875 37.612392732456 45.188655766574 32.831389052775 37.609956009447 
45.191902020826 32.874686743702 37.604092685481 45.195413531186 32.918180794514 37.598347155637 45.196252368343 32.934427515785 37.595928469678 
45.196934958486 32.950128335004 37.593517250434 
POLYGONS 1 332
331 0 1 2 3 4 5 6 7 8 9 10 11 12 13 14 15 16 17 18 19 20 21 22 23 24 25 26 27 28 29 30 31 32 33 34 35 36 37 38 39 40 41 42 43 44 45 46 47 48 49 50 51 52 53 54 55 56 57 58 59 60 61 62 63 64 65 66 67 68 69 70 71 72 73 74 75 76 77 78 79 80 81 82 83 84 85 86 87 88 89 90 91 92 93 94 95 96 97 98 99 100 101 102 103 104 105 106 107 108 109 110 111 112 113 114 115 116 117 118 119 120 121 122 123 124 125 126 127 128 129 130 131 132 133 134 135 136 137 138 139 140 141 142 143 144 145 146 147 148 149 150 151 152 153 154 155 156 157 158 159 160 161 162 163 164 165 166 167 168 169 170 171 172 173 174 175 176 177 178 179 180 181 182 183 184 185 186 187 188 189 190 191 192 193 194 195 196 197 198 199 200 201 202 203 204 205 206 207 208 209 210 211 212 213 214 215 216 217 218 219 220 221 222 223 224 225 226 227 228 229 230 231 232 233 234 235 236 237 238 239 240 241 242 243 244 245 246 247 248 249 250 251 252 253 254 255 256 257 258 259 260 261 262 263 264 265 266 267 268 269 270 271 272 273 274 275 276 277 278 279 280 281 282 283 284 285 286 287 288 289 290 291 292 293 294 295 296 297 298 299 300 301 302 303 304 305 306 307 308 309 310 311 312 313 314 315 316 317 318 319 320 321 322 323 324 325 326 327 328 329 330 

CELL_DATA 1
FIELD FieldData 6
ClosedSection 1 1 int
1 
SectionArea 1 1 double
        7.77944 
SectionLength 1 1 double
        10.1067 
SectionMinSize 1 1 double
        1.33713 
SectionMaxSize 1 1 double
        1.78382 
SectionShapeFactor 1 1 double
       0.749587 
