# vtk DataFile Version 4.2
vtk output
ASCII
DATASET POLYDATA
POINTS 453 double
52.808674723617 42.222030744149 30.564762273953 52.830199194235 42.218594701513 30.557875347195 52.868933597485 42.211126477104 30.546131340892 
52.897587334762 42.207436952163 30.536516278918 52.927320625298 42.202812660988 30.526941135246 52.964610263276 42.199376901475 30.513737964813 
52.984060420474 42.197209195243 30.507041072052  53.03110093756 42.194613750211 30.489506652904 53.039412649985 42.194041434572 30.486465923766 
 53.07766232039 42.193160296852  30.47158703491 53.093496442777 42.192800081868 30.465425359471 53.096957699283  42.19284128392 30.464017830641 
53.146609948554 42.192880686997 30.444105415931 53.161968883602 42.193246196422 30.437767339983 53.198861475309 42.193755352153 30.422729498209 
53.225707969089 42.194602380951 30.411545729843 53.250951510067  42.19516861869 30.401146073334 53.288298588306 42.196423886046 30.385549066209 
 53.30336700721 42.196813140842 30.379315380811 53.351708072242 42.198287675852 30.359202965022 53.356911731574 42.198386035101 30.357068479128 
53.386296454509 42.198888600356 30.345041893996 53.411965655579  42.19933156904 30.334534002171 53.416390182257 42.199382535289 30.332735617424 
53.467477700739 42.199097922343 30.312411937812  53.48343743335 42.198846221816 30.306145095619 53.523441105705 42.197526943772 30.290784923823 
53.551246527628 42.196179756711 30.280325920791 53.577510442303 42.194524928621 30.270639982144 53.614123854181 42.191546762003 30.257476467125 
53.627886628842 42.190143766097 30.252671665895 53.666582690738  42.18549527999  30.23951793739 53.670575798854 42.184932703949 30.238202476173 
53.706290305705 42.179621907045 30.226577996198 53.738362495019 42.173763071728 30.216689737533  53.75702165715 42.170214555322 30.211007601519 
53.791377144478 42.162349071335 30.201218721734 53.812976321503 42.157390623244 30.195071281785  53.82590279716 42.153987453733 30.191612411221 
53.872839399838 42.141113025568 30.179314576142 53.925897476075 42.124582598116  30.16641198138 53.935065584765 42.121634841266 30.164228686066 
53.946815825328  42.11743169573 30.161645362457 53.996724396592  42.09965820163   30.1506328145 54.040886410766 42.082228911848 30.141748587412 
54.056402328189 42.076037709715 30.138661351344 54.070367528236 42.069967954295 30.136134010544 54.114323532208  42.05091076946 30.128155049541 
54.166840368807 42.026277368818 30.119564501566 54.167301654953 42.026062085556 30.119488496724 54.167929345764 42.025745021296 30.119397263771 
54.218482108955 42.000113879585 30.112097849062 54.262108658786 41.976333043047  30.10663819187 54.268296594541 41.972979650713 30.105853868804 
54.273459831655 41.969923456093 30.105329874962 54.317544845468 41.943530666129 30.101006609988 54.363462775108 41.913303176307 30.097887052318 
54.367939971029 41.910363644106 30.097578950913 54.372887400121 41.906801324207 30.097397211084 54.417844862298 41.874214506807 30.095854845305 
54.455231328214 41.844361954813 30.095963811017 54.467604209926 41.834508645975 30.095986601973 54.483663127722 41.820456750217 30.096654579619 
 54.51733453785 41.790992165172 30.098055855308 54.540513506474 41.768755719367 30.100007716154 54.567449901515 41.743054594398  30.10220524842 
 54.60210803752 41.706741625417 30.106672348419 54.615135295777   41.6931234895 30.108335699075 54.626205170439 41.679890325455  30.11058868587 
54.658562062013 41.641864307618 30.116843515495 54.682262780252 41.610959014995 30.122967540899 54.697282513431 41.591179118472 30.126946759781 
54.715474662975 41.564540451791 30.133121384861  54.73054154581 41.542890356253 30.138026904102 54.740325086788  41.52703793659 30.142119003141 
54.760172331238 41.494564395206   30.1505794565 54.783518476648 41.451666611342 30.162906488218 54.787955039332 41.443328588388 30.165343039086 
 54.79462071318 41.428914858698 30.169957161836 54.812226585778 41.391695162401  30.18171427594 54.823272459362 41.363771840109 30.191401218815 
54.832556480704 41.340225580206 30.199581876122 54.839912718278 41.318200031903  30.20776631301 54.849767102587 41.289354110349 30.218396887457 
54.858068669242 41.260509394416 30.229648967931  54.86382635834 41.240377276521 30.237516910324  54.86923075302 41.217092866197 30.247119549852 
54.875216229559 41.191789758396 30.257509627499 54.878869437563 41.172241955156 30.265925391697  54.88457583233  41.14177137818 30.279038895517 
 54.88984083033 41.104193106854 30.295921435951 54.891679934262 41.091152615584 30.301775229943 54.892719416624 41.080288338996 30.306849532295 
54.896619684115 41.040110068416 30.325592861519 54.899197003374 40.995238165471 30.347238352853 54.899564689118 40.988539140652 30.350476701771 
54.899690160882 40.982111450475  30.35367495912 54.900620058313 40.936853715281 30.376175465573 54.900120405531 40.891684430654 30.399203999417 
54.900006158594 40.884851198213 30.402703256063 54.899669694422 40.877380474812 30.406613726116 54.897665108751 40.832873765899 30.429910328114 
54.894674411998 40.792705520885  30.45140936187 54.893780809756 40.781513774184 30.457423630296  54.89231461808 40.768480261311 30.464598119316 
54.888128057882 40.731082120732 30.485176261138 54.883618058813 40.699963700015 30.502710241986 54.881033229642  40.68285562721 30.512392162346 
54.877119331517 40.662130663084 30.524434516887 54.872455485706  40.63698079749 30.539013653242 54.868431198686 40.619142478133 30.549641336222 
54.862108463101  40.59210992985   30.5658365837 54.852060837001 40.555382563283 30.588423875932  54.84936621173 40.545926347137 30.594282570428 
54.834865757192 40.502578197278 30.621999942318 54.832985877866 40.496932118673 30.625606593399 54.832545538592  40.49576291208  30.62637392115 
54.813661587527 40.447580372232 30.658290760611 54.808593246229 40.436195262983 30.666075306214 54.792527719981 40.400820267526 30.690390106241 
54.770868551889  40.35915969132 30.720122627483 54.770596596353 40.358638497028 30.720494992049 54.770389183946 40.358279482879 30.720759533166 
 54.74586764124 40.316512489065 30.751692608979  54.73143014911 40.294307402693 30.768699145969 54.719312154711 40.276039416729 30.782786614675 
54.699022512161 40.248216779604 30.804976821461 54.690973094845 40.237144662799 30.813797509775 54.685252503384 40.229762909544 30.819820092324 
54.660429409605 40.198648897385 30.845490011132 54.631434639051 40.163710659625 30.874764002227 54.628547654307 40.160317086568 30.877635730197 
54.624628040117 40.155822816856 30.881477454328  54.59611661372 40.122743781782 30.909618167405 54.575643502034 40.099151845279 30.929743701413 
 54.56392813393 40.086007679428 30.941080307548 54.547527846134 40.067575836295 30.956966231732 54.532388136057 40.050331664745 30.971746878627 
54.522775005446 40.039214243721 30.981216944025 54.501504393935 40.015403418119   31.0017726111 54.474147118769 39.983868298738 31.028670641037 
54.471517470191 39.980936136813 31.031206075634 54.467056769353  39.97573089555 31.035623900642 54.442244985544 39.946498089375 31.060338535161 
54.429126218979 39.930072377589 31.073895872526 54.414099755175 39.911983448896 31.089058085324 54.389050658739   39.8789948999 31.115765931579 
54.387479495717 39.876905484979 31.117451377715 54.386688741908 39.875712108546 31.118371309629 54.362282526258 39.840981326416 31.145702111257 
54.349899120259 39.820481421931 31.161023915174  54.33905288756 39.803934537667 31.173732032682 54.317838640701 39.765809018781 31.201499700081 
54.317655996874 39.765515308063  31.20172131394 54.317266620139 39.764770440293 31.202253765295 54.297354602876 39.725970973467 31.229840322339 
54.290521093975 39.709245670524 31.241030968458 54.278762432874 39.684640686521 31.258177165657 54.265518467963 39.649590501042 31.281197387872 
54.261743537217 39.641097034865 31.287002322576 54.253218194496 39.616663556574 31.302766456377 54.246013091815 39.595494318554 31.316351921449 
54.244033370743 39.587156625114 31.321358902888 54.232116564319 39.547749390868 31.346049450035 54.227156291359 39.522813881732 31.360639011112 
54.220319306775 39.497196659716 31.376324985906 54.213714247959 39.454385350338 31.400607857751 54.210984333901 39.442801100453 31.407556188969 
54.206230558775 39.403337590954 31.429405405992 54.204563484393 39.385228452668 31.439225574361 54.204572446105 39.377903515656 31.442923974426 
54.198734127377 39.327305468083 31.470835044958 54.191421610942 39.273751615658 31.500830583389 54.191042963653 39.271938846529 31.501898448714 
54.190602499451  39.27029721367 31.502904588641 54.185604902194 39.216528678779 31.532081185645 54.177677998462 39.187846998841 31.549752585118 
 54.17620390015 39.166710292958 31.561025559383 54.166268871373 39.135484437388 31.580787301935 54.160887544148 39.122368255739 31.589572117368 
 54.14973373026 39.106984855612 31.601815443422  54.13748210507 39.083237283377 31.618725807922 54.125449169553 39.070087491642 31.630192486433 
54.103514757555 39.050512944087 31.648873100168 54.080379460655 39.035354860097 31.665802771197 54.058789691515  39.02444364267 31.679966900085 
54.034103986374 39.015200452394 31.694528360291 54.001391490586 39.006429900949 31.712066775801 53.988017120944 39.003815809368 31.718746185902 
 53.96215686993 39.000680601264 31.730691265077 53.943582213276 38.997279419328 31.739851891623 53.929671531207 38.996761095361 31.745686976435 
53.897557318461 38.996001459079 31.758937017207 53.878355220323 38.997671869401   31.7657858596 53.845233752698 38.997342945454 31.779221763294 
53.806262042984 39.003310813144   31.7918191168 53.778503545369 39.004058943331 31.802562080913 53.747285798593 39.009750063856 31.812192781064 
53.711630141944  39.01904716807 31.821779021592 53.663753319951 39.032798546096  31.83401033625 53.654418795195 39.035065952063 31.836604150202 
53.648444348694 39.036864906644  31.83808854759 53.601367257226 39.051988250728 31.849306075535 53.554546831119 39.067706227384 31.860120249336 
53.553107291798 39.068233778001 31.860430359525 53.551464426641 39.068830752525  31.86078684292 53.504859577594 39.083420697825 31.872084750705 
53.472369561331 39.093222659926 31.880147567405 53.456243291035 39.098428423815 31.883977369166 53.433883149843 39.104994349204 31.889617267245 
 53.40608306874 39.111890154401 31.897269883722 53.388340647898 39.116140001463 31.902230290385 53.355467523053 39.124393660599  31.91122909975 
53.312138246582 39.135195276737 31.923129298426 53.305064064833 39.136662444021 31.925221973652 53.299757292748 39.137771844684 31.926787373807 
53.254518194733 39.147347275301 31.940072425281 53.212010522854 39.156364941891 31.952545059351 53.203910239294 39.158112981959 31.954906876506 
53.192475060327 39.160562786904 31.958250105461 53.152788370082 39.167850990173  31.97046661452 53.125960577244 39.172800919759 31.978713133728 
53.100711663738 39.177612534962 31.986396999807 53.061907203805 39.185054450905 31.998182369553 53.047335321387 39.187470979249  32.00279909407 
53.037499326818  39.18914589844 32.005893255275 52.992736098899 39.197143317371 32.019785175905 52.944714604316 39.206462163691 32.034314633404 
52.936750307584  39.20809125369 32.036682086113 52.925506243752 39.210649168086 32.039894109348 52.879965439747 39.220005706235 32.053410662513 
 52.84309731383 39.229015379102 32.063627928936 52.822855245909 39.234083633374 32.069176165966 52.802746669008 39.240080601662 32.074201553713 
52.765787758012 39.250409973109 32.083788222178 52.718933081183 39.265631798006  32.09486687095 52.708955405057 39.268882160594 32.097221572894 
52.702167969786 39.271378032211 32.098679464454 52.652905264509 39.288587395259 32.109718364274 52.611831573342 39.304614809486 32.118073798259 
52.597608006614 39.309885353242 32.121108568174 52.572367880422 39.320222572011 32.125996298369 52.542772502699 39.332348933491 32.131724676313 
52.527717353992 39.339232031412   32.1342776306 52.488642990228 39.356360138518   32.1412757759 52.450163007132 39.375389161667 32.147075076163 
52.435604823301 39.382345158765 32.149392085291 52.400531178619 39.401391403579 32.153817978494 52.383783579408 39.410499908454 32.155924279396 
52.377783374731 39.414220513445 32.156447802913 52.333452531878 39.441017177319 32.160665439889 52.309873801956 39.457097797444 32.161984864795 
52.284756657344 39.473873793038 32.163569195035 52.245454505391 39.503170428094 32.164508680901 52.237625882657 39.508917502476 32.164740566746 
52.213019814148 39.528909071367 32.164495004889 52.191870114383 39.546116470899 32.164271802511 52.185682864536 39.551639967569 32.163959089736 
52.147326030957 39.585574579013 32.162175834057 52.130434110537   39.6017691944 32.160758666688  52.10372646233 39.627284685374 32.158563308696 
 52.07946751754 39.652098928219 32.155741318548 52.060793652491 39.671238833423 32.153549526818  52.03147037145  39.70305686021 32.149216813209 
52.018202570126     39.71741711 32.147274771835 51.985207550002 39.754945208303  32.14152724607 51.975595904664 39.765829941842 32.139876925756 
51.939863838076 39.808071752778  32.13284367124 51.932716712366 39.816471865336 32.131461690894  51.89489543051 39.862520902886 32.123341296824 
51.889413181494 39.869137454393 32.122193709991 51.849989281872 39.918339143026 32.113122047225 51.845589875734 39.923787152544 32.112131209975 
51.805476644054 39.975259478145 32.102188148971 51.801752122942 39.980021852811 32.101273444975 51.761777613057 40.033184309229 32.090420622398 
51.758409769124 40.037669250256 32.089503234248  51.71939657566  40.09173891276 32.077806775373 51.716070112742 40.096364911263 32.076801518663 
51.678589301659 40.150202850203 32.064608243615 51.674927409018 40.155438045453 32.063429486961 51.639007752352 40.207944571149 32.051283646867 
51.634441895582 40.214518955056 32.049790231219 51.600464713507 40.264276298146 32.038255589625 51.594299550953 40.273130714166 32.036250596112 
51.562975461864 40.318691579631  32.02577390983 51.554234131428 40.331119098364 32.022995192901 51.526475220573  40.37106016356 32.013930388248 
51.514140734024 40.388533227606 32.010041224538 51.491317477151 40.421206735491 32.002672008036 51.474275687202 40.445373195554 31.997285949164 
51.457423231026 40.469412751087 31.991888173265 51.434603091449  40.50178931684 31.984667781088  51.42463178069 40.515936023539 31.981512969181 
51.394918776736  40.55799657929 31.972159864378  51.39255948808 40.561318173122 31.971426362706 51.382952833087  40.57481170244 31.968455569341 
51.360311119873 40.606389808533 31.961567231007 51.354990186819 40.613803805773 31.959951989607 51.327668640664 40.651599075921 31.951796435952 
51.315213490096 40.668713011042 31.948137116799 51.294198218124  40.69749342215 31.942011109381 51.275314498969 40.723048862082 31.936661010253 
51.259472434536 40.744496743612 31.932168255067 51.234855511296 40.777252064856 31.925476298573 51.223128348851  40.79294844346 31.922241747581 
51.193397556707 40.831752467384 31.914541606017 51.184924202354 40.842903677656   31.9123005687 51.150662246489  40.88688532416 31.903799029125 
51.144996570016 40.894191237773 31.902376529486 51.106433123791 40.942765800295 31.893277084467 51.103636718766 40.946295779764 31.892613390372 
51.067160228517 40.991373148763 31.884445300722 51.061413440438 40.998458264079 31.883166887821 51.060942304918 40.999026903216   31.8830682542 
51.018606568584 41.050466851065 31.874031973128 51.014257039605 41.055684206545 31.873137724791 50.975775047621 41.102206966687 31.865042617995 
50.967192508774 41.112507355428 31.863275325367 50.933030844547 41.153953382236 31.856015096178 50.920181266416 41.169526064616 31.853292741334 
50.890516916457 41.205909499067 31.846789335718 50.874189150038 41.226005228085 31.843174542289 50.848487318238 41.258088190347  31.83725704693 
50.829957709735 41.281279876185 31.832959708932 50.806688004609 41.310939893293 31.827292360651 50.787721888246 41.335221116561 31.822619256259 
50.765483773139  41.36429658292  31.81683404476 50.747845744466 41.387507351316  31.81216986315 50.725032801112 41.418307414602 31.805743345211 
50.710326243806 41.438349838215 31.801505976642 50.685648691939 41.473111493877  31.79382431773 50.675297104019 41.487817347301 31.790539268455 
50.647882013202 41.528389951081 31.781017540186 50.642791457687 41.535965605759 31.779228300201 50.616521522001 41.576794793349 31.769118104741 
50.612287642131 41.583347900998 31.767502439974 50.611569802456 41.584511105667 31.767202154264 50.583572830207 41.630243180157 31.755305975446 
50.576899711879 41.641778433788 31.752149604171 50.556764288494 41.677263418318 31.742282635879 50.543487121194 41.702519356845 31.734837714427 
50.532019447836 41.724902115142 31.728119936213 50.511405149223 41.769029888546  31.71407679589 50.509327483292 41.773588878015 31.712605091662 
50.505190465331 41.783577498722 31.709214327527 50.488530812371 41.823126671737 31.695900816223 50.480929081075 41.843771530467  31.68851252741 
50.470185143447 41.873687677284 31.677697453372 50.454961722209 41.924787447757 31.657970914926  50.45487976836 41.925059819956 31.657866092931 
50.454839385568 41.925235699284 31.657793383123 50.443374212703 41.976340983502 31.636558366792 50.437746001197 42.015213996373  31.61916698633 
50.436139705064  42.02690091292  31.61390401167 50.435368171915 42.039858296677 31.607664512081 50.433350456251 42.076671112729 31.589867849678 
50.434391904408 42.113082125025 31.571048644584   50.4348392582 42.125353705772 31.564667416245 50.436251759921 42.136337734775 31.558550237374 
50.441171026653 42.172751375306 31.538176108539 50.451464443174 42.215771360279 31.512310082466 50.452138674706 42.218462168249 31.510680038411 
50.452841711352 42.220376049696 31.509431109174 50.468185451525 42.262170849164 31.482160942676 50.482606230651  42.29125017453 31.461686891835 
50.488553718307 42.303642667787 31.453041000783 50.501340853519 42.324064621349 31.437596844277 50.513322157675 42.342617024843 31.423420395316 
50.520430070362 42.351244492851 31.416212422652 50.542111765142 42.379019642833 31.393488508801 50.564100298665 42.400949865071 31.373595664546 
50.574826116948 42.412356066212 31.363533867735 50.608837595101 42.440076232093  31.33589798204 50.611369201624 42.442117583209 31.333852038468 
50.612307515372 42.442689343943 31.333187150463 50.651125053614 42.468480033658 31.304600930584 50.666696565466 42.476142554313 31.294489811733 
50.694011390179 42.491024052548 31.276025454749 50.727407615543 42.504651902505 31.255758255278 50.739623132784 42.510300449726 31.248009523352 
50.771453926151 42.521631862044 31.229530102316 50.787263784965 42.527198177905 31.220382905527 50.794218338237 42.528988892404 31.216691638926 
50.836655344295 42.542071699831 31.193077835289 50.867936124989 42.549105430132 31.176990798673 50.887857022541  42.55454760015 31.166259312699 
50.926896668154 42.562186357574 31.146758014027 50.940490372477  42.56475943449 31.140011459088 50.948850299057 42.565722868839 31.136175252416 
50.994342006745 42.573267812613 31.114136435541 51.042451878833 42.577745236199 31.092598997594 51.049845259092 42.578830093685 31.089088657891 
51.058998401854 42.579521596733 31.085072092775 51.106423223686 42.582679245993 31.064476118977 51.154343581222 42.582557903982 31.045338803062 
51.164316430374 42.583082949538 31.041077960565 51.174567273623 42.583033995568 31.036995840299 51.222907181731 42.582129792714 31.018086091509 
51.274328510433 42.577522146753 30.999813516938 51.280658885417 42.577327110348 30.997375908545 51.287139142782 42.576564953627 30.995164871883 
51.337058256772 42.571204436054 30.977874637222 51.384331114688 42.563231577439 30.962964854681 51.389087677242 42.562687858199  30.96133399565 
51.394016323701 42.561837700274 30.959789066279 51.438356405578 42.555038094652 30.945461303877 51.475832689315 42.548126763485 30.933939894744 
51.476306559338 42.548059718869 30.933783929192 51.479698870447 42.547519922914 30.932697656199 51.520709949613  42.54126947442 30.919426072044 
51.524629401842 42.540577612241 30.918205460697 51.572570460704  42.53314078455 30.902757064869 51.588114571324 42.529990784792  30.89812152348 
51.628428565663 42.523415100105 30.885293589831 51.662066072429 42.516494842113 30.875314646229 51.685151416483  42.51247634749 30.868096745321 
51.740386828258 42.500600292949 30.851969531309 51.740825082729 42.500516886503 30.851836103841 51.741782695684 42.500295431184 30.851564371721 
51.796199649814 42.489529743325 30.835203887307 51.821082765905 42.483468240373 30.828298260689 51.848937331161  42.47716942714 30.820322098802 
51.899835131172 42.464396842596   30.8063857924 51.902008093459 42.463828434883 30.805802495237 51.906824010963 42.462439397739 30.804575076345 
51.956399915042 42.449892210594  30.79105445479 51.975962368974 42.445059204317 30.785659602604 52.014417807503 42.434738399598 30.775469041084 
52.058177194648 42.423813432999 30.763458865169 52.076935813574 42.418779032109  30.75848784252 52.112390397262  42.40836468999 30.749546806195 
52.138824946017 42.401900648442 30.742223060322 52.157024116639 42.396576187079  30.73762276832   52.2007137763 42.383924920114 30.726512992271 
52.236319306094 42.372268809854 30.718139065509 52.260811977183 42.365905424056  30.71154243563 52.298359784515 42.354845304255 30.702089150786 
52.317656560276 42.349407341265  30.69710648138 52.327557807795 42.346171615104 30.694775002337 52.374082935211 42.334228536049 30.682171319563 
52.401671203878 42.325976005742 30.675289245679 52.432720001936  42.31873471244 30.666509682939 52.472411187174 42.307262506226 30.656405949426 
52.494630430128 42.302241844897 30.650041530761 52.543718431669 42.287710787764 30.637719019775 52.559619453787 42.284110538515 30.633168040715 
 52.61354688526 42.268674715707 30.619363942263 52.626554806039 42.265809041792 30.615600793941 52.681159167821 42.250963989574  30.60122691972 
52.694412736548 42.248272834416 30.597277154877 52.746131915005 42.235383997336 30.583070527849 52.762471364347 42.232375474246 30.578044843106 

POLYGONS 1 454
453 0 1 2 3 4 5 6 7 8 9 10 11 12 13 14 15 16 17 18 19 20 21 22 23 24 25 26 27 28 29 30 31 32 33 34 35 36 37 38 39 40 41 42 43 44 45 46 47 48 49 50 51 52 53 54 55 56 57 58 59 60 61 62 63 64 65 66 67 68 69 70 71 72 73 74 75 76 77 78 79 80 81 82 83 84 85 86 87 88 89 90 91 92 93 94 95 96 97 98 99 100 101 102 103 104 105 106 107 108 109 110 111 112 113 114 115 116 117 118 119 120 121 122 123 124 125 126 127 128 129 130 131 132 133 134 135 136 137 138 139 140 141 142 143 144 145 146 147 148 149 150 151 152 153 154 155 156 157 158 159 160 161 162 163 164 165 166 167 168 169 170 171 172 173 174 175 176 177 178 179 180 181 182 183 184 185 186 187 188 189 190 191 192 193 194 195 196 197 198 199 200 201 202 203 204 205 206 207 208 209 210 211 212 213 214 215 216 217 218 219 220 221 222 223 224 225 226 227 228 229 230 231 232 233 234 235 236 237 238 239 240 241 242 243 244 245 246 247 248 249 250 251 252 253 254 255 256 257 258 259 260 261 262 263 264 265 266 267 268 269 270 271 272 273 274 275 276 277 278 279 280 281 282 283 284 285 286 287 288 289 290 291 292 293 294 295 296 297 298 299 300 301 302 303 304 305 306 307 308 309 310 311 312 313 314 315 316 317 318 319 320 321 322 323 324 325 326 327 328 329 330 331 332 333 334 335 336 337 338 339 340 341 342 343 344 345 346 347 348 349 350 351 352 353 354 355 356 357 358 359 360 361 362 363 364 365 366 367 368 369 370 371 372 373 374 375 376 377 378 379 380 381 382 383 384 385 386 387 388 389 390 391 392 393 394 395 396 397 398 399 400 401 402 403 404 405 406 407 408 409 410 411 412 413 414 415 416 417 418 419 420 421 422 423 424 425 426 427 428 429 430 431 432 433 434 435 436 437 438 439 440 441 442 443 444 445 446 447 448 449 450 451 452 

CELL_DATA 1
FIELD FieldData 6
ClosedSection 1 1 int
1 
SectionArea 1 1 double
        12.4347 
SectionLength 1 1 double
        13.5972 
SectionMinSize 1 1 double
        1.43912 
SectionMaxSize 1 1 double
        2.71002 
SectionShapeFactor 1 1 double
       0.531038 
