# vtk DataFile Version 4.2
vtk output
ASCII
DATASET POLYDATA
POINTS 638 double
29.794512336234  26.04482566817 31.037999734075 29.796178863128 26.046670727797 31.040315339783 29.826555265995 26.079935053554  31.08096924825 
29.829557744477 26.083222247952 31.084984469569   29.8587222245 26.114896616129  31.12290167852 29.863611066374 26.120208312547   31.1292667408 
 29.89071369428 26.149469594876 31.163766164704 29.898213605669  26.15756944407 31.173323919324 29.923082690811 26.184272731568 31.204358606379 
29.934460449049 26.196479702824 31.218514980065 29.955571019149 26.218983131621 31.244163142983 29.973076267373 26.237576951958 31.265149361061 
29.988790728217 26.254110621904 31.283318520484  30.01136412747  26.27765271364 31.308535456731 30.020981028298 26.287677907689 31.319259928777 
30.033220724903 26.300291386363 31.332290577582 30.053279624056 26.320876014931 31.353277389819 30.067826970372 26.335648553387 31.367835657947 
30.087181852818 26.355269932656 31.387064610804 30.107682634901 26.375909175065 31.406822017033 30.120994925043 26.389236751815 31.419335076259 
30.136426602942 26.404630931016 31.433606069164  30.15519347534 26.423291271557 31.450702971851 30.168113379986 26.436091108866 31.462275008708 
30.189855901819 26.457534314543 31.481336721108 30.220025660451  26.48716368994 31.507256188839 30.223724350995  26.49078058825 31.510367883199 
30.231563464455 26.498402159622 31.516775470469 30.257621802736 26.523680465553 31.537833905286 30.270208576224 26.535808839996 31.547659394981 
30.290882013785 26.555639374373 31.563415782715 30.322869231266 26.586051286263 31.586645104411 30.324158363308 26.587269495212 31.587549740628 
30.325868012974 26.588869070292 31.588681538056 30.358667063639 26.619537303001 31.610313785146  30.38670595072 26.645627058032 31.628265462983 
30.392570091509 26.651040332173 31.631836618944 30.401350676247 26.659132842547 31.637128799463 30.426577963258 26.682347395409 31.652181602332 
30.437787122332 26.692630106517 31.658733659137 30.459141290705  26.71208235127 31.670634742781 30.473523797049 26.725157940797 31.678540408332 
30.498314460753  26.74753363129 31.691478825367 30.510557413145 26.758587216411 31.697882398431 30.542137883523 26.786889141416 31.713507058206 
30.549817443764 26.793784352305 31.717361327389 30.589148323111 26.828805204637 31.735858291329 30.591362463022 26.830780499534 31.736915652117 
30.607651422897 26.845169316374 31.744087850352 30.634021444316 26.868435803733 31.755582572069 30.637766932326 26.871708181836 31.757078246895 
30.677451419062 26.906448809999 31.773217460814 30.687482581767 26.915136100199 31.776897470077 30.721179964211 26.944381737984 31.789525496666 
30.737671932733 26.958561089416 31.795138012152 30.764008224989 26.981268923672 31.804374721612 30.785418709864 26.999573420691 31.811221410767 
30.805255283002  27.01655917316  31.81767864234 30.827787163213 27.035679750365 31.824278941153 30.845838450895 27.050985249102 31.829512259479 
30.863611507691 27.065929109105 31.834131630657 30.903114859242 27.099049783757 31.843998698005 30.908111960847 27.103233380944 31.845220958973 
30.911036190605 27.105677994227 31.845921083779 30.957781935217  27.14431479034 31.855238451983 30.999211817454 27.178559887397 31.863504849763 
31.017569636361 27.193562000151 31.866437830565 31.032820101583 27.206011714324 31.868818998648 31.078219796877 27.242958867013 31.875420327119 
31.109115946364 27.267977601864 31.879381942632 31.129125592292  27.28411484905 31.881667975289 31.169329264077 27.316354781661 31.885483808571 
 31.17336616262 27.319578516679 31.885809636889 31.213232107692  27.35109771176 31.887685118659 31.217317805263 27.354325707577 31.887867669047 
31.217658106853 27.354592023216     31.88787207 31.220536680263  27.35684116983 31.887894079287 31.261261201225 27.388630660913 31.888077211285 
 31.26690783266  27.39304507381 31.888130860733 31.306774068531 27.423830861722 31.886894624036  31.32100504359 27.434855422328 31.886601847545 
31.354625098984 27.460551275817 31.884429089302  31.37874215514 27.479074022673 31.883252421724 31.403167979035 27.497612879784 31.881123169614 
31.438235643345  27.52436203125 31.878631583943 31.451963092914  27.53471897011 31.877171948002 31.499022722689 27.570400126945 31.872915093308 
31.500975565259 27.571865782763 31.872674771931 31.508916607152  27.57785278309 31.871812284414 31.550305092174 27.609025110304 31.867182361766 
31.560934709129 27.617066866966 31.866145589097 31.600391392382 27.646634931875  31.86109851667  31.62456944038 27.664854327227 31.858433514604 
31.651652449574 27.685093483875 31.854730331579 31.691718162586 27.715210069887   31.8499961099 31.705662737119 27.725622691966 31.848054748389 
 31.76179027227  27.76781398639 31.841428414252 31.762117398969 27.768058456772 31.841383719981 31.768649849275 27.772977266487 31.840647884814 
 31.82226775455 27.813341430319 31.834569645377 31.824445454937 27.814990426054 31.834363488064 31.844424898162 27.830027960244 31.832084935255 
31.882936679368 27.858999340947 31.827631263077 31.887868607866 27.862698068931 31.827012434198 31.937926879942 27.900310679596 31.821033091909 
31.952621281237 27.911332311119  31.81919560902 31.988901970788 27.938562269439 31.814732599267 32.014981858626 27.958090965272 31.811332728974 
32.035276489159 27.973299301543  31.80873649341 32.072856178378  28.00143292685 31.803811359127  32.07570625804 28.003565538799 31.803433297326 
32.081491949724 28.007892478104 31.802656134435 32.111089035483 28.030078867443 31.798899568832  32.14694922034 28.056925645649 31.794201661089 
32.147069020877  28.05701617399 31.794189527219 32.147359351628 28.057234494006 31.794155578726 32.187511855041 28.087497666555 31.789756140257 
32.200865577579 28.097490719732 31.787988777237 32.233392750908  28.12210213529 31.784829889238  32.25844111394 28.140883784964 31.781672068211 
32.283060933647 28.159667743604 31.779940985729 32.316854989852 28.185108518823 31.776110989277 32.336007851358 28.199834640838  31.77524460518 
32.375993384131 28.229954286122 31.770788469143  32.39175898001 28.242117084448 31.770249440294 32.431716864637 28.271866056054 31.764312503008 
32.454900515209 28.289297011266 31.761591218263 32.479987489444 28.307860481653 31.757380321757 32.520757553327  28.33807856202 31.750747708695 
32.524827538809  28.34106438449 31.749955028176 32.532334757291  28.34654535134 31.748380595676 32.567502482484 28.372846996605 31.743660062581 
32.588243609488 28.388161401085 31.740037411134 32.609498303663 28.403966096489 31.736796265892 32.644914379802 28.429648435179 31.728627782127 
32.653564405064 28.436103674892 31.727407140513 32.658799778177 28.439933884801 31.726342678175 32.698746399219 28.469367711491 31.719106291401 
32.729793314178 28.491771645822 31.711478698985 32.745843044242 28.503429560239 31.707858730349 32.782517167491 28.529453743293 31.696980549827 
32.795638167387 28.539065410701 31.694365012872 32.801397514702 28.543187548395 31.692806286627 32.847633481974 28.576138151784 31.679691126299 
32.876736602433 28.596128754814 31.668254359458 32.902475084955 28.613989112203 31.658907037888 32.953107899289   28.6480286255  31.63587267309 
32.960002878178 28.652866293781 31.633594002934 32.965231206209 28.656402834253 31.631307231507 33.018480273143 28.693922342257 31.614382878997 
33.053574035026 28.717276550997 31.597405305782 33.075299615021 28.732551082379 31.590358515101 33.115711513187 28.759711878936 31.571942636146 
33.125971544107 28.766776237766 31.567982224001  33.16407651997 28.791009539063 31.544776990577 33.167529993366 28.793257514488 31.542893170351 
33.168151253725 28.793626823438  31.54240545068 33.204985093827 28.815833540867 31.514807343999 33.210211357804 28.818940218776 31.510704129021 
33.242349234089 28.837339367868  31.48248300452 33.249054133528 28.841017142708 31.475913112657 33.277903063701 28.856345546099  31.44554201992 
33.289326182143 28.862220885646 31.432692707496 33.312514114124 28.873814965742 31.405200077608 33.331515751844 28.882863315212 31.380751349972 
33.345108612083 28.889210387231 31.362728815775 33.374270889299 28.902036608542 31.320708624563 33.375923475423 28.902751998682 31.318278815102 
33.379408166573 28.904152357336   31.3126965972 33.406856111243 28.916265402662 31.273319766533 33.418447763368   28.9209953225 31.255054896626 
33.436523923243 28.928302825439 31.226282363816 33.462378173389 28.937522593793 31.179903084092 33.464018181943 28.938099976709 31.176929501781 
33.466136524797 28.938692940813 31.172440432299 33.491156068007 28.947389292424 31.126600966289 33.506924574862 28.951643272145  31.09250694568 
33.515343030671 28.953922534629 31.074339503435 33.523027105675 28.955131331026 31.054059836793 33.537654715172 28.958828380806 31.021375877907 
33.551981874428 28.961412536633 30.984964978706 33.558729274916 28.962764270591 30.968388624893 33.563837588232 28.963551510768 30.954837476359 
33.580300952249 28.967544714929  30.91733988157   33.5999732144 28.971929638807 30.870893800516 33.601905762841 28.972465170951 30.866775447273 
33.606024214485 28.973557747442  30.85779228737 33.625899930293  28.97932352894 30.816530429964 33.633180478062 28.981290453936 30.800800607864 
33.650674628974  28.98653565794 30.765205171902 33.665199694491 28.990442653606 30.733750755141 33.675477137957 28.993537851738 30.712897518096 
33.695432618546 28.998757706449 30.669056368428 33.699319188569 28.999862702199 30.660892583453 33.714451031981 29.003432765173 30.626002798165 
33.721164390874 29.005161554251 30.611138284887   33.7225201969 29.005381033148 30.607586341034 33.740881437935 29.009154844196  30.56288300512 
33.746991767384 29.009561983114 30.544406563601 33.757754124443  29.01122492802 30.515875075167 33.771876268532 29.010858674583 30.467627839657 
33.772002030228 29.010868387552  30.46725321613 33.772166482873 29.010846366669 30.466616064418 33.785867134781 29.009759024721 30.416703952684 
[...]
CELL_DATA 1
FIELD FieldData 6
ClosedSection 1 1 int
1 
SectionArea 1 1 double
        26.8157 
SectionLength 1 1 double
        18.6788 
SectionMinSize 1 1 double
         2.6379 
SectionMaxSize 1 1 double
        3.52351 
SectionShapeFactor 1 1 double
       0.748658 
