# vtk DataFile Version 4.2
vtk output
ASCII
DATASET POLYDATA
POINTS 718 double
43.405676808815  36.82193203955 40.844410105575 43.400300364601 36.777952558437 40.819798329811 43.397798623377 36.756202518527 40.807394499932 
43.393841192684 36.721654319439 40.787667814291 43.389713964535 36.682594064682 40.764852346896 43.387180126925 36.658608540136 40.750841364641 
43.383676850154  36.62282665159 40.729531003068 43.381036836515 36.594955588795 40.712801000968  43.37875397636 36.568501177439 40.696592141908 
43.375639103059 36.529375673304 40.672233573812 43.374776130837 36.517462618782 40.664690623209 43.372897509508 36.488676531906 40.646159140872 
43.371296003766 36.464096601006  40.63033157316 43.370826952359 36.456220069348 40.625194516443 43.368957409621 36.418070032149 40.599719107131 
43.368211291728 36.402571722207 40.589350065574  43.36804919165 36.398353882884 40.586467675896 43.366550136044 36.354148668186 40.555963611799 
43.365918923871  36.33036101632 40.539289730391 43.365471680536 36.307699150263 40.523177432626 43.364817887796 36.263965562395  40.49177434713 
 43.36480004645  36.26168695423  40.49011422933 43.364775697555 36.256339115993 40.486192097226 43.364648216451  36.21590693626 40.456455342959 
43.364624618963 36.198512204594 40.443615858189  43.36480588509 36.170271021277 40.422446116368 43.365017635801 36.134032707921 40.395312462193 
43.365128677773 36.124926573923 40.388408796732  43.36539536136 36.102205065292 40.371198196271  43.36567976398 36.079576149456 40.354029963026 
43.365800411376 36.070312383205 40.346995446486 43.366454199042  36.03414718488 40.319263210467   43.3669782116 36.006381746713 40.297939493544 
43.367410415927 35.988501691017 40.284067785829 43.368535855984 35.944085050571 40.249532000991 43.368581455942 35.942348777102 40.248179605072 
43.368601372741 35.941650958702 40.247633721683 43.370172190055 35.895971381451  40.21150557345 43.370881186614 35.877378011974  40.19669722049 
43.372156886858 35.849299116178 40.174031589017 43.373922588103 35.814272152914 40.145499979887 43.374641421982 35.802072277062 40.135409105147 
 43.37721258739 35.762295768631 40.102172904391 43.377735440076 35.754277548872 40.095466369406 43.377906664497 35.751818918095 40.093393843922 
43.381608564725 35.705621794054 40.053735962222 43.383044582406 35.688349460988 40.038831851306 43.386150594475 35.656154956016 40.010417567726 
43.389607294596 35.621552832346 39.979703524399 43.391121163069 35.608023027111 39.967454411371 43.393902358505 35.583723345249 39.945362920342 
43.396410805717  35.56172310861 39.925376043613 43.398143204448 35.547069433527 39.911972448892 43.402056398484 35.516402532242  39.88349693088 
43.407280294478 35.477310875485   39.8468506787 43.408032835424 35.472076383505 39.841865308931   43.4096974874 35.461021472664 39.831225292891 
43.414702557214 35.427725705115 39.799191851707 43.417118610876 35.412598083185 39.784428014662 43.422103613162 35.383196364607 39.755306299172 
43.428224359021   35.3492007777 39.721107533805   43.4301626355 35.339039029865 39.710724548334 43.434679444561 35.316718544655 39.687535169713 
43.438985114629 35.295456547313 39.665440968066 43.440999872108 35.286088765544 39.655532689939 43.448473987141 35.253112799367 39.620090236775 
43.455355387991 35.224481776697 39.588738779028 43.458394254006 35.212544221465 39.575416376708 43.466483282453  35.18265154199 39.541347990703 
43.469394209923 35.171860015682 39.529062706069 43.470517836234 35.167956853856  39.52451475934 43.481586653038  35.13161958941 39.481276704127 
43.486895720062 35.115130434957 39.461233436255 43.494235336556  35.09354800962 39.434422257556 43.505865478771  35.06119912016 39.393307276858 
43.507094825312 35.057962985303 39.389096912669 43.511277054852 35.047400072747 39.375103671242 43.521084008781  35.02265342275 39.342307376992 
43.523308284028 35.017219202354 39.335001071167  43.53786142168 34.983839844324  39.28880741886 43.538808219141 34.981740609933 39.285855708643 
43.542395596246 34.974268045968 39.275028059075 43.554819246144 34.948475503059 39.237593948323 43.559135679737 34.940095818727 39.225018414224 
43.571966976407  34.91599897675 39.188237422231  43.58157194824 34.899425005763 39.161788196277 43.589762846995 34.885676629136 39.139518242747 
43.604679964871 34.862453156075 39.100303804807 43.608338666078 34.856881484044  39.09077774391 43.621737792162  34.83781554949 39.056881830298 
43.627392080444 34.829821634592 39.042616385456  43.62913867751 34.827534235192 39.038344452886 43.646884876474 34.804771505804 38.995293701923 
43.656218830795 34.793749612296 38.973353898974 43.666973371501 34.781394055099 38.948329425947 43.687723646529 34.759214922486 38.901274897511 
43.687918411199 34.759011478615 38.900836740297 43.688256271135 34.758678338458 38.900091301758 43.710085209431 34.737282105773 38.852023502978 
43.723417073434 34.724957503321 38.823216354866 43.733258290452 34.716006449701 38.802060232127  43.75007011543 34.701618831703 38.766587799616 
43.757237094039 34.695509303007 38.751483456068 43.761486693125 34.692081458884 38.742671603068 43.781894464299 34.675772107378 38.700467193225 
43.800647390526 34.661542134965 38.662245276324 43.806923253135 34.656800843434 38.649469394174 43.818143068927 34.648753512272 38.626946550935 
43.832339971842 34.638585202632 38.598458049273 43.840423441461 34.633073456307 38.582442882583 43.858119729863 34.621100101598  38.54745134614 
43.880990113181 34.606425304651 38.502820508821 43.884168261681 34.604402635745 38.496630731859 43.889739609916 34.601048307868 38.485921641665 
43.910524431572 34.588565003424  38.44599225682 43.922750416943 34.581653447356 38.422824357675 43.937103753686 34.573595976944 38.395667162507 
43.960419991869  34.56126949518 38.352116045294 43.963796687571 34.559500796427 38.345821070889 43.965980649727 34.558431157509 38.341804638938 
43.990726138188 34.546317842409 38.296300911303 44.011694109839 34.536702004067  38.25822338553 44.017780210568  34.53392297031 38.247180021071 
44.025881835325 34.530464612953 38.232657817813 44.045018659269 34.522483666045 38.198494129715 44.061230613517 34.516233805112 38.169930427251 
44.072377553412 34.511971763762 38.150316789002 44.084265103852 34.507799265843 38.129675864691 44.099804937741 34.502539638161 38.102837491031 
44.116698182062 34.497390496608 38.074082492679 44.127147060763 34.494238039781 38.056320821782 44.135810395119 34.491966955284 38.041847951642 
44.154971757793 34.487219910148 38.010041531769 44.181717888502 34.481788227773 37.966528989152 44.183763516701 34.481408848486  37.96322769677 
44.187895060627 34.480778412262 37.956660599817 44.214142066959  34.47687190583 37.915013872244 44.226524489249 34.475268971567 37.895544043461 
44.245826244946 34.473248494474 37.865548333514 44.272713800105 34.470846327044 37.824069197337 44.275636997862 34.470673957553 37.819625330145 
 44.27952977607 34.470490050949 37.813741275387 44.303685849664  34.46935635937 37.777234183978 44.322353236992 34.468951583788  37.74937098614 
44.325957523917 34.468976377773 37.744067372681 44.350922803556 34.469756008429 37.707781539256 44.352554814051 34.469860168319 37.705448861215 
44.382608465536 34.472501829724 37.663027856751 44.383746403196 34.472623770245 37.661437869343  44.41698260847 34.476926059203 37.615546694071 
44.418295387523 34.477108973954 37.613743670705 44.452554935192 34.482605182672 37.567225117243 44.454765354213 34.482961449521 37.564224972795 
44.488923715559 34.489096299946 37.518328504133 44.492771600676 34.489795716255 37.513164508968 44.525793909661 34.496306974437 37.469224085463 
44.532144847794 34.497586523346 37.460793542025 44.563238702378 34.504267227013  37.41982601828 44.573257411543 34.506504902323 37.406688908426 
44.601386136993 34.513255805397 37.370151547337 44.616788783726 34.517156192467 37.350295322858 44.640663768911  34.52367073837 37.319863951505 
44.663497614777 34.530107038215 37.290911978008 44.681285691495 34.535534893285 37.268664032772 44.713055542341 34.545382874676 37.229042547491 
44.723520188265 34.548893201616 37.216188908104 44.763934568902 34.562374240088 37.166492139358 44.767206828481 34.563548112294  37.16252925085 
44.789751095628 34.571403257537 37.135054986383 44.811404269332 34.578921770002 37.108647328024 44.814467870156 34.579955386122 37.104888730289 
44.855783181079  34.59497172457 37.054997997855 44.864281607588 34.597985732389 37.044680269697 44.899227746284 34.611174595942 37.002841469162 
44.912785532561 34.616173400682  36.98652227087 44.939923262503 34.626739806074 36.954272139242 44.957910115158 34.633570763499 36.932769163745 
44.976769376113 34.641206180128 36.910573423408 44.997205509344 34.649479880395 36.886521740141 45.007074319066 34.653669440723 36.875050611327 
45.027197328887 34.662107975348 36.851583273674 45.045541081948 34.670367372993  36.83061054011 45.062160177948 34.677654767217 36.811464967971 
45.087642649502 34.689994058013 36.782971095195 45.099918040514 34.695824280168 36.769160792269 45.131408479701 34.711967942726 36.734611486409 
 45.13993931681 34.716274206696 36.725202336857 45.176396410216 34.735878709787 36.685880907846 45.181775188919 34.738730710711 36.680049636834 
45.222335679193 34.761583407918 36.637073354759 45.225468051745 34.763334733764 36.633744408158 45.265648453575 34.787294342162 36.592148607372 
45.272389250889 34.791479948343 36.585293265848 45.306054504475 34.812891420717 36.551431558566 45.322337963695 34.823501260142 36.535240610703 
45.345467294902 34.839167126914 36.512683394801 45.370595053911 34.856718331746 36.488570761704 45.383949188419 34.866409840691 36.476025470288 
45.419177162756 34.892862985861 36.443587787344 45.422261663275 34.895258117902 36.440806025908 45.432393932777 34.903410699329 36.431879024475 
45.460436436604 34.925462204606 36.406793379365 45.468990574802 34.932458285102 36.399340632769 45.498347338945 34.957130352671 36.374253948317 
[...]
CELL_DATA 1
FIELD FieldData 6
ClosedSection 1 1 int
1 
SectionArea 1 1 double
        36.1128 
SectionLength 1 1 double
        21.8032 
SectionMinSize 1 1 double
        3.05242 
SectionMaxSize 1 1 double
        4.18503 
SectionShapeFactor 1 1 double
       0.729367 
