# vtk DataFile Version 4.2
vtk output
ASCII
DATASET POLYDATA
POINTS 668 double
21.858512281936 17.336918846429 19.103440714152   21.8771496784 17.353584232943 19.108940422816  21.89418922542 17.368401884868 19.114248277649 
21.915998228132 17.385551342596 19.122253848345 21.940022683043 17.405114346528 19.130624471812 21.958476288827 17.418642517205 19.138054371205 
21.994491945879 17.446826548078 19.151366182566 22.004502407492 17.453866598414 19.155595924414 22.034462431649 17.476775211227 19.167027679791 
22.050930941407 17.488680510654 19.173770213301 22.057337467868 17.494005093714 19.175930438446 22.095704870577  17.52225769062 19.191294173267 
22.127169365759 17.547067749854 19.202798638256 22.139671372439 17.556135546466 19.207897225874 22.169207479718 17.578478720771 19.219328295702 
22.184354223753 17.589482113673 19.225493883529 22.189849540479 17.593668535793 19.227601070057 22.231081702495 17.623641869222 19.244371479895 
22.250655756095 17.638758168116 19.251740694255 22.281064204864 17.661654369167  19.26358071697  22.31209764008  17.68644797963 19.274711668136 
22.334492569422 17.704367617179 19.282725765464 22.370523136745 17.735096724269 19.294352009313 22.396297012663 17.758632493328 19.301631202417 
22.421619536401 17.781929288307 19.308667319758 22.461797824545 17.820759590695 19.318585576654 22.469962357758 17.828726498299 19.320550113768 
22.492863278043 17.852351710993 19.325207005301 22.516039892108  17.87557375999  19.33037892437 22.524069408956 17.884128231259 19.331830825254 
22.560655236765 17.923631670928 19.338095380203 22.581470581412 17.947437118842 19.340771686929 22.603588765969 17.973391680288 19.343175533304 
22.633758667752  18.01010395013  19.34558039707 22.644592560638 18.023587936419 19.346243216953 22.682334895312 18.071191348211 19.348132521342 
22.683612673569  18.07283072976 19.348177958534 22.689045544387 18.079849595734 19.348338756843 22.720151157121 18.119489783264 19.349623830832 
22.727058318885 18.128361640205  19.34986276352 22.753575652256 18.162995544146 19.350396969983 22.765243701163 18.178116239379 19.350711312291 
22.785143005238 18.204345409963 19.350952673971 22.795669474883  18.21778632677 19.351370030195 22.827150775787 18.258747184004 19.352108645724 
22.828380879842 18.260286894471 19.352178090416    22.831527606 18.264316274583 19.352295226447 22.863321409463 18.304925708494 19.353547164642 
22.876317793558  18.32185657447 19.353838035813 22.900215118266 18.351777736557 19.355181075342 22.930015994589  18.38980849821 19.356376670464 
22.936905766499 18.398319266723 19.356841122478 22.950841818194 18.415979851097 19.357483055895  22.97325417481 18.444462876976   19.3584615171 
22.984320372797 18.459085890083 19.358571233467 23.008483660222 18.490242259904 19.359326989297 23.039315197873 18.532038795147 19.358928209492 
23.042666340626 18.536513446312 19.358930456024 23.047370525095 18.543196136662 19.358665687289 23.075862182787 18.583673080974 19.357060641119 
23.096986709977 18.615942031339 19.354363246842 23.108178098559 18.632958889604 19.352986711133 23.119303205365  18.65128960441 19.350674039863 
23.139571340865 18.684742828289 19.346422251975 23.163923562182 18.728779808987 19.338748578672 23.169166029559   18.7382382481 19.337111099814 
23.171685505046 18.743342597037 19.335951191794 23.196562053032  18.79450261034 19.323990498829 23.203935543737 18.811205340611 19.319418187821 
23.223246741782 18.856008540387 19.306736601363 23.228901945523 18.870168680605 19.302328833442 23.248763815973 18.921009185056 19.286108462617 
23.250215379092 18.924979216626  19.28475317594 23.255406268421 18.939646873004 19.279592479653 23.268951451459 18.977632918114 19.266318294914 
 23.27267691346 18.988489384876 19.262394490019 23.286003608828 19.029228895189 19.247087451267 23.294607862295 19.056880827988 19.236304230497 
23.301454508283  19.07974843334 19.227146864978 23.313884246628 19.122744195169 19.209533692061 23.315808881064 19.129576222457  19.20668995751 
23.323336867525 19.156791877084 19.195237956945 23.330123178838 19.181226651302 19.184980671684 23.331697866573 19.186903482025 19.182595901086 
23.345865526222 19.238189417982  19.16099912122 23.348966535304 19.249187932823 19.156423502905 23.356606520356 19.275926833158 19.145389640847 
23.365321432994 19.306386477636 19.132830945805 23.370609162163 19.324275440162 19.125606369815 23.381930501163 19.361906933922 19.110585244745 
23.399489268501 19.417796999112 19.088939930959 23.399627474705  19.41822532845 19.088777292408 23.399826906233 19.418808994759 19.088565575974 
23.418846500669 19.474399029075 19.068423553532 23.435499694582 19.520251617906 19.052670621906 23.439911006097 19.532134422435 19.048673483774 
23.444922816298 19.544687498212 19.044764560244  23.46283256423 19.589849655866 19.030593310631 23.483081317632 19.636946739726 19.017216804131 
23.487525404732 19.647187510856 19.014344976715 23.491513471364 19.655865159708 19.012109793398 23.513455597221 19.704186360009 18.999426616756 
23.537201687616 19.754417550553 18.987077586555 23.539606009001 19.759593571437 18.985767122431 23.543278161102 19.767311606282 18.983890705258 
23.565582763465 19.814325302356 18.972403621438 23.579763865106 19.844020912539 18.965230617253 23.590806142758   19.8676108256  18.95933349056 
23.607870001004 19.904372481145 18.950015160589 23.614965072868 19.919827229407 18.946027549735 23.619222020454 19.929315521987 18.943491086964 
23.637639282484 19.971556306616 18.931722575305 23.654067275723 20.010986146745 18.920056028058 23.658745939732 20.022711741399 18.916402300317 
23.666513036952 20.043759365638 18.909280809737 23.677557882576 20.073959402327 18.898973641579 23.683158722901 20.090934361493 18.892638459621 
23.693513142564  20.12503098064 18.879114437901 23.705412452993 20.171346031245 18.858812475289 23.706482070948 20.175857843525 18.856754859363 
 23.70778296727 20.182923630863 18.853198730204 23.715590524972  20.22612746164  18.83132381167 23.718834484743 20.252909625199 18.816339937999 
23.721280463809 20.275454931742 18.803472437429 23.722957149965 20.307012510894 18.783902955325 23.723731506218 20.323779386895 18.773401580969 
23.723713835364 20.335448119756 18.765596808355  23.72333465088  20.37102310614 18.741511881914 23.720902667764 20.415013326752 18.709978652193 
23.720729079241 20.417814583151 18.707953945816 23.720509135844 20.420143801769 18.706202982711 23.715912103062 20.464060018207  18.67278798721 
23.709726016364 20.507896200924 18.638009022994 23.709373531246 20.510208277326 18.636151278963 23.708906546326 20.512638515417 18.634112530018 
 23.70082069676 20.555675514985 18.598172493645 23.691588369259  20.59732739119 18.562134416129 23.690816638265 20.600606987058 18.559256886228 
 23.68996163617  20.60379393913 18.556366921587 23.679358966374  20.64463435886    18.519648193 23.667525309755 20.685825984435 18.481597024367 
23.666906696285 20.687881852412 18.479672923221 23.666284271251 20.689803566007 18.477834971828 23.653715110726 20.730217062092 18.439647164264 
23.639866010656 20.772180562292 18.399283040823 23.625698766138 20.814143035386  18.35863582694 23.611829140218 20.853958104477 18.319687496989 
23.611062781069 20.856297961565 18.317442044852 23.610220321509 20.858803014732  18.31501844301 23.596388148803 20.898688469193 18.276056537261 
23.583023995208 20.936545252204 18.238866252668 23.581356474367 20.941576108372 18.234020717019 23.579488231336 20.947101114206 18.228666292259 
23.566363070123 20.985002961342 18.191659101447 23.553600113238 21.021501232306 18.155911889788 23.551156943185 21.028925063025  18.14877715902 
23.548558926866 21.036739811857  18.14124336742 23.536082033499 21.073132964597 18.105821484104 23.522560123716 21.111785665042 18.067959201498 
23.520656184288  21.11757177347 18.062398647615 23.518967392047 21.122512962811 18.057593992084 23.504863603942 21.162107808678 18.018583797425 
23.490161125612 21.201195697308  17.97937798732 23.488127169688 21.206450921801  17.97405583333 23.485270330506 21.213387836035 17.966877143385 
23.470284838086 21.250495731548 17.928740560264 23.459267944742 21.275590371356   17.9021628413 23.451416718585  21.29329853073 17.883339368824 
23.439644542936 21.317391364023 17.856756676081  23.43134671775  21.33426963658 17.838088808429 23.425078670404 21.345574995757 17.824951428947 
23.409640902929 21.373038414458 17.792849225963 23.388718192358 21.405058531114  17.75281295825 23.385888597279 21.409262214167  17.74748303191 
23.379924495773 21.416792677931 17.737136548941 23.358779500817 21.442956758443 17.700810979835 23.347502806535 21.454448438736 17.683081654417 
23.328625663667 21.475047098558 17.652493927665 23.299158198189 21.500934158031 17.608929859781 23.294240818433 21.505719114593 17.601349680655 
23.284045671886 21.513305257273 17.587192056268 23.254505268399  21.53388824993 17.547103454079 23.237893302386 21.543321920912   17.5259889583 
23.210402328488 21.560351013941  17.49010065866  23.17428970636 21.579258126903 17.445268487866 23.161704360871 21.586520671521 17.429194877507 
23.119255738088 21.607037397579 17.377636734546 23.112677043636 21.610352171494 17.369556072161 23.065528884012 21.630575968631 17.314001605719 
23.064476179741 21.631028117822 17.312760807954 23.055055932764 21.634486567193  17.30204965435 23.017303011408 21.648182334183   17.2592330142 
23.012675838836 21.649595480087  17.25416241347 22.969424699037 21.663756698214  17.20613082071   22.9599958797 21.666385599513 17.195965753486 
22.919244354871 21.678991504724 17.151201937023 22.907945973872 21.682068589102 17.139070105266 22.864430271686 21.695493049937 17.091294323974 
22.858837193879   21.6970486882 17.085267047242 22.838510030438 21.703578088612 17.062777331488 22.811337815964 21.712071516224 17.032871009305 
22.802577074544 21.715077545269 17.023050112078 22.764780735862 21.726885181328 16.981455093552 22.741655357525 21.734548856852 16.955712306107 
[...]
CELL_DATA 1
FIELD FieldData 6
ClosedSection 1 1 int
1 
SectionArea 1 1 double
        32.5266 
SectionLength 1 1 double
        20.4933 
SectionMinSize 1 1 double
        2.85053 
SectionMaxSize 1 1 double
        3.49525 
SectionShapeFactor 1 1 double
       0.815545 
