# vtk DataFile Version 4.2
vtk output
ASCII
DATASET POLYDATA
POINTS 436 double
40.970702273226 38.142616707558  43.07410912526  40.99956131024 38.149349491345   43.0648023549 41.052379848355 38.161835288828 43.047963172831 
41.060130362788 38.163646864142  43.04546773604 41.064733873905 38.164741850405 43.044008125999 41.124924620722 38.178954702534 43.024799954878 
41.158824340781 38.187157970959 43.014218051615 41.200616325087 38.197351172962 43.001267885201 41.233862925547 38.205448886568 42.990952317496 
41.276050220973 38.215855762988 42.978019185664 41.302793739951 38.222355058146 42.969704109751 41.348345272142 38.233667625921 42.955829811543 
41.366949760376 38.238172882127 42.950026199705 41.417586322385 38.250825222311 42.934694613928 41.428545785538 38.253473928776 42.931269616433 
41.484101693034 38.267499505585 42.914619992273 41.487605154378  38.26836153026 42.913543314888 41.514839550523 38.275385727796 42.905558271546 
41.544266581114 38.282947867904 42.896897542701 41.548182729307 38.284002752805 42.895802704628 41.596775603776 38.296836285054 42.881913159409 
 41.60914071049 38.300282578153 42.878593719809 41.644496964284 38.309948854469 42.868878657374 41.677487249826 38.319334843156 42.860249897365 
41.691043784289 38.323117011122 42.856615150947 41.701055936602 38.325965416542 42.853996273793 41.744502812322 38.338589698213 42.842945875946 
41.780729786813 38.349448387915 42.834127208727 41.810238485591 38.358690039062 42.827416015604 41.849253380871  38.37090860435 42.818542492423 
41.877162874355 38.380006690325  42.81262015621 41.909759557463 38.390533219663 42.805584793444 41.937843140103 38.400003340739 42.800000690864 
41.962150995034 38.408198393089 42.795165149928 41.989006342454 38.417581204426  42.79021422429 42.008719491013 38.424540528875 42.786665533165 
42.030201449975 38.432243447476 42.782940212502 42.074699145453 38.448658389152 42.775769932106 42.077013095592 38.449520728196 42.775407462026 
42.081130447044 38.451094578813 42.774809427301 42.125845963046 38.467939106077 42.768019619652 42.153893030164 38.478864432045 42.764189060997 
42.177428634634 38.488052733121 42.760998875381 42.208262154995  38.50061474783   42.7574437371 42.229385804101 38.509104949738 42.754870273454 
42.248702071497 38.517260076087 42.752982705647 42.281370548624 38.531007037831 42.749736433769 42.312716622915 38.544949317114 42.747516163622 
42.332892300494 38.553812070081  42.74595490331 42.355710714969  38.56438116274 42.744838190075 42.384032718184 38.577386050879 42.743317229343 
42.406214960707 38.588077943794 42.742728413912 42.434662249863 38.601655943146 42.741814245787 42.472317400558 38.620451128338 42.741582606499 
42.485201073834 38.626783192653 42.741385914445 42.494239958055 38.631393468859 42.741447651491   42.5359438568 38.652501434365 42.741538441116 
42.581418582518  38.67650465622 42.742811563085 42.587827209587 38.679872012764 42.742972713622 42.597754326329  38.68534164489 42.743524012983 
 42.64146192821 38.708876191778 42.745299894285  42.66718089218 38.723231645981 42.746948148973  42.69647558209 38.739836146355 42.749126855276 
42.738320314592 38.764436069796 42.753288408212 42.752055352629 38.773067383897 42.755316814321 42.792165140198 38.798572239816 42.761596349129 
42.803586195292 38.806132091936 42.763738397777 42.844135469993 38.833491990107  42.77196161342 42.848129512082 38.836204382011 42.772792392195 
42.858082390876 38.843370266916 42.775346698848 42.891914070161 38.867343332174 42.783571001784 42.908510909077 38.879835001036 42.788475677827 
42.938264978896 38.902331051844 42.797389396908 42.982933231521 38.938406671692  42.81351211868 42.990847025547 38.944767693596 42.816332340962 
42.997014342664 38.950267611917 42.819175959185 43.043198770469 38.991230270708 42.840204179069 43.059203396776 39.006822345204 42.849153593935 
43.087785555137 39.034663782673 42.865131362881 43.113462871236  39.06215273029 42.882432898452 43.127368989529 39.077019072996 42.891778051922 
43.160854545436 39.116620839046 42.918807542017 43.162059608411 39.118020298648 42.919749672333 43.162474139597 39.118552963207 42.920134757269 
43.193889934599 39.158681238886 42.949032847642 43.207764583625 39.178203509466 42.963937238321 43.221951423553 39.197953078786 42.978924756905 
43.243562308701 39.230906745115 43.005169361813 43.246912446482 39.235866643856 43.009060987338   43.2487329328 39.238756226116 43.011406979556 
43.271212414186   39.2741030936 43.039978139966 43.282485871549 39.292785574826 43.055444209339 43.295631410181 39.314437437776 43.073320266377 
43.313241857135  39.34470187128 43.098765489154 43.320679670893 39.357619631823 43.109673584912 43.340646744125 39.393335553974 43.140191616441 
43.346683713113 39.404841620602 43.150260513479 43.362951912326 39.435793413082 43.177329155018 43.371273275798  39.45231189757 43.191991732366 
43.383447759899 39.477174131613 43.214270727795  43.39207056962 39.495798200884 43.231257959935 43.402008474839 39.518387718007 43.252174705942 
43.409491609473  39.53661115691 43.269369131563 43.418620609806 39.560799830347 43.292674233199 43.423910795928 39.576124001607  43.30773465834 
43.432865769635 39.605030635619 43.336758362986 43.435516521241  39.61469829311 43.346671723387 43.444148411246 39.651125898563 43.384838942537 
43.444438444456 39.652586740305 43.386403230104 43.445290769341 39.657827636687 43.392128183999 43.450748223726 39.689879940068 43.426993982333 
43.451957509378 39.698810680975 43.436895476812 43.454852631248 39.726772826042 43.468431836084 43.456238108319 39.747835301113 43.492663834631 
43.456810406916  39.76335219005  43.51078481968 43.456630470351 39.797319702481 43.551312667811 43.456550855588  39.79958320165 43.554053911007 
43.456047006822  39.80578085412 43.561731211574 43.453913630854  39.83528522985 43.598120391915 43.452666165162 39.845669510579 43.611225847823 
43.448732503616 39.870735530852   43.6434139404 43.444443693028 39.891769715945 43.671017451113 43.440847116365 39.905984215407 43.690090417638 
43.431678429128 39.935976204968 43.731281772212 43.429676836088 39.941443791293 43.738989131557 43.417585309394 39.970627836131 43.780973081436 
43.414960133625 39.977068918705  43.79021307506 43.414524485837 39.978030081901 43.791618252591 43.395429151043  40.01299829046 43.844688136176 
43.394873403885 40.013951373939 43.846155771587 43.389911795121 40.020972140417 43.857487672184 43.372539506295 40.045683613513 43.897318474457 
43.369621793199  40.04918019595 43.903230194089 43.349351202077 40.073725821624 43.944602934711  43.34211566603 40.081257649212 43.957907574055 
 43.32618970411 40.097785436953 43.987132195627 43.315681297341 40.107435637802 44.004921677784  43.30394281936 40.117895461058 44.024412749038 
43.292845398771 40.126971975502 44.041873040175 43.274333259212 40.141441093103 44.070199915143 43.265892356547 40.147434667707 44.082397448283 
43.239557018537 40.165806991488 44.120063720383 43.235920521436 40.168142325725 44.125024951845 43.213868580598 40.182060873392 44.154820929662 
43.203108681732 40.188891072836 44.169405654416 43.201311935452 40.190021862885 44.171829484385 43.168743760051 40.208853336687 44.213782490352 
43.160493868687 40.213553794188 44.224326643113 43.133479819388 40.227723360503 44.257399114996 43.116923431671 40.236273631099 44.277509159568 
43.097928403603 40.245429042133 44.299802738565 43.070539864097 40.258359309012 44.331625231802 43.063821126692 40.261379826207 44.339251473232 
43.048418380405  40.26817446876 44.356580089013 43.030798298981 40.276030446087 44.376502284037 43.022768133428 40.279539949976 44.385497394783 
42.997891999983 40.290104689485 44.412997302199 42.979210557666 40.297893915319 44.433476995245 42.963882558117 40.304152171044 44.450122477965 
42.936497586754 40.315091407166  44.47957358966 42.928473507022  40.31821626961 44.488107341623 42.892259912459 40.331989307897 44.526228667806 
42.891384383665 40.332312016699 44.527138087671 42.885964020622 40.334259582963 44.532708401326 42.852698822672 40.346261290522 44.566952569235 
42.847427272896 40.348114228327 44.572320975341 42.812496566495 40.359921834501 44.607333653204 42.801357249319 40.363568114579 44.618357343292 
42.768599512879 40.373791013203 44.650180274822 42.751326173494 40.378975659285 44.666715619389 42.720525309486 40.387925262411 44.695849052926 
42.694644456705  40.39504835622 44.719856489626 42.668477942541 40.402140935385 44.743999042429 42.623484050896 40.413517437821 44.784537706825 
42.621167975922 40.414100750839 44.786621715307 42.615956525893 40.415323973325 44.791204721246 42.574200362009 40.425061122046 44.827849644835 
42.556447686927 40.428818253658 44.842973961468 42.528159151779 40.434859741687 44.867139199643 42.499915298169 40.440222578747 44.890470058916 
42.480982083078  40.44387768328 44.906181417296 42.445034365506 40.449934455862 44.934961167378 42.431965170441 40.452182379737 44.945479006175 
42.391353576841 40.458226391435 44.977042392943 42.382016300808 40.459650418391 44.984340281849 42.338130700302 40.465355059393 45.017464584513 
42.331432148235 40.466251636113 45.022551315517 42.285082482499 40.471473884091 45.056580292571 42.280218042949 40.472045266108 45.060179393425 
42.232058474688 40.476731984717 45.094657247732 42.228575473543 40.477090160565 45.097173632541 42.178570618498 40.481151034654 45.132014127308 
 42.17620804692 40.481360110679 45.133680712901 42.124394777055 40.484783252075 45.168847574617 42.123096368959 40.484880935997 45.169742997183 
42.069384047442 40.487701119456 45.205331998037 42.069308126341 40.487705789541  45.20538311597 42.066714727105 40.487806395552 45.207059148091 
 42.01481623645 40.489795243264 45.240570404047 42.013222448376 40.489816828988 45.241552532454 41.959922973578 40.491095892056 45.275059914927 
41.955812934611 40.491091823099 45.277521533497 41.904858403818 40.491563488075 45.308660931478 41.897037551828 40.491425891003 45.313190539812 
 41.85063718637 40.491125724893  45.34067850876 41.837115566819 40.490649835534  45.34822663071 41.797587907406 40.489583577495 45.370678628993 
41.776359576081 40.488536694077 45.382172139384 41.746969592015 40.487131223177 45.398136805794 41.716470650884 40.484977112648 45.413876115675 
41.698553127311 40.483688808659 45.423095509323  41.65942621174 40.479905659266 45.442074035769  41.64969939755  40.47894968311  45.44677358848 
41.603690336476 40.473397704445 45.467777303951 41.599708166395 40.472918656938  45.46959698371 41.563494679112 40.467760372331  45.48519079208 
41.548309882193 40.465580090125 45.491708843727 41.546645567999 40.465306914578 45.492382542174 41.495834567517 40.457009710281 45.513001232463 
41.487636589645  40.45549550911 45.516119057238 41.442565646188  40.44724664704 45.533350628053  41.42633455995 40.443914279014 45.539125632383 
41.388426779674 40.436209552257 45.552706040971 41.363825020125 40.430641375423 45.560843823901 41.333632741658 40.423865817033  45.57089978099 
41.301017756343 40.415780166598 45.580850667091 41.278067091787 40.410145183277 45.587918120622 41.237974345408 40.399495773536 45.599305696149 
41.221437350723 40.395172706199 45.604085388851  41.17424713472 40.382030469834 45.616765845314 41.163339869054   40.3790556207 45.619771423133 
41.107106154656 40.362691543831 45.634045089832 41.101733158677  40.36115970659 45.635446638896 41.055236098952 40.347114369777 45.646636477505 
41.037848308721 40.341854097015 45.650811504189 41.035500514079 40.341103893544 45.651327721041 40.976701024009 40.322800047027 45.664832884217 
40.948738097467 40.313598243899 45.670663867031 40.919558723718 40.304120590595 45.676896597781  40.88850959754 40.293434782976 45.682813727571 
40.864641335879 40.285078641604 45.687193776845 40.829315197159 40.271838172674  45.69263763279 40.811717538762  40.26525582871 45.695365395283 
40.802512291951 40.261620206246 45.696563289176 40.759234233391 40.244191660909 45.701795513312 40.727774996178  40.23103935006 45.705023721431 
40.706049194453 40.221758639797 45.707017870015 40.657065930635 40.200268437816 45.710840628706 40.652678295239 40.198315274091 45.711149496387 
40.637091525567 40.191261566976 45.712109610089 40.599454274178 40.174236943054 45.714437399035 40.589425300657 40.169645468826 45.714992194396 
40.546493020156 40.149801457003 45.717142614535  40.52470300788 40.139633714493 45.718119766363 40.494076158246  40.12519614713 45.719319053891 
40.463106481082 40.110462062009 45.720371231116 40.441987129733 40.100285663055 45.720935614275 40.404233501123 40.081897302528 45.721710454498 
40.390041867002 40.074852315827 45.721843715421 40.347401470753 40.053414291703 45.721922168442 40.338140235469 40.048652786456 45.721813909677 
40.292065604727  40.02469600134 45.720956052226 40.286194342284 40.021582627872 45.720774654616  40.23780635934 39.995472405056 45.718742556998 
 40.23417161142  39.99347867179 45.718551336134 40.184350398488 39.965526077222 45.715186986417 40.181987521292 39.964180679575 45.715003999141 
 40.13123121168  39.93477549774 45.710472291005 40.129529522897 39.933775445861 45.710303466859 40.078167546922 39.903175925122 45.704714011436 
40.076722955326 39.902301758562 45.704540699711 40.024886835973 39.870661298474 45.697997108042 40.023495294759 39.869796558857 45.697803178099 
39.971454240029 39.837280974033 45.690341208957 39.970006627742 39.836360235121 45.690114290889 39.918090937068 39.803016041139  45.68159108101 
39.916449775156 39.801943469614  45.68129963907 39.865091282551 39.767917965092 45.671631321095 39.863077297531 39.766564195958 45.671228999705 
 39.81270815631 39.732069694062 45.660408879147 39.810126305998 39.730281013898 45.659829812051 39.761116990651 39.695547235398 45.647908922578 
39.757743973823 39.693127675001 45.647053919402 39.710466980466   39.6584271022 45.634132965857 39.706070936179 39.655156279663  45.63287892291 
39.660840841091 39.620701279554 45.619021833587  39.65510344877 39.616248353265 45.617166089891 39.612445449453 39.582305016079 45.602374326277 
39.604902223793 39.576153619698 45.599581168853 39.565420741739 39.543090612055 45.583930711068 39.555403566587 39.534535974804 45.579762433988 
39.519674414267 39.502994384035 45.563670599448 39.506491738414 39.491188448109 45.557533054959 39.475035354851 39.461911529596 45.541571966582 
39.458179187495 39.446124935067 45.532902096496 39.431224460849 39.419785044965  45.51773447172 39.410518027476 39.399566246574 45.506101040262 
 39.38782746694 39.376364488384 45.492108703272 39.363801301239  39.35190989075 45.477427046794 39.344582589076 39.331234737785 45.464357782245 
39.318544273649 39.303579327958 45.447074801849 39.301590217128 39.284435375469 45.434468565264 39.274970378286 39.254807830388 45.415187805311 
39.259315649644 39.236157565639 45.402389300831 39.233732033089 39.206285440876 45.382195658093 39.218466913954 39.187034051922 45.368448034736 
39.195874274714 39.158993877367  45.34863942886 39.180503671422 39.138158412455 45.333070125507 39.162656364991 39.114590932895 45.315736128436 
39.147308740436 39.092244448747 45.298354988018 39.135043908039 39.074802349152 45.284959849453 39.120413527986 39.052249444535 45.266902654652 
39.113854902713  39.04222337567 45.258907940029 39.100690325066 39.021184514472 45.241772753932 39.087719073269  38.99994966006  45.22428832834 
39.079021313682 38.984713540047 45.211377586813 39.061413071533 38.953623539154 45.184948651519 39.057402871187 38.946088158714 45.178388422172 
39.036194277894   38.9059214473 45.143319188455 39.036172886056 38.905878294998 45.143280676464 39.015977100176 38.865647976514 45.107527960941 
39.012336791455 38.858342885245 45.101019791412 38.997037709312 38.825909941977 45.071607071352 38.990155413693 38.811224825611 45.058262528834 
38.979455755732 38.787013310398 45.035872808079 38.969802829006 38.764801985282 45.015235076764 38.963433967954  38.74923023503 45.000527363023 
38.951466206739 38.719233184393 44.972014102764 38.948896217452 38.712357571019 44.965374687827 38.937950352011 38.682299109339 44.936175104953 
 38.93553093271  38.67577671258 44.929865644471 38.934994425455 38.674277947068   44.9284041399 38.923235029405 38.639239142715 44.893766370058 
38.919997935553 38.629168901547 44.883725820237 38.912079081179 38.602520709835 44.856767782226 38.906689408399 38.583192999051 44.837003021209 
38.902169828105 38.565136723873 44.818229065415 38.895595085858 38.536263914005 44.787817218039 38.893838993534  38.52715618598 44.778033258716 
38.887562481032 38.489044273638 44.736448310416  38.88753176284 38.488864239225 44.736252511452 38.887525609078 38.488822108235 44.736206070312 
38.883634408606 38.450526275293 44.692970823595 38.882922615481  38.44146123678 44.682610972368  38.88193901759 38.412445840962 44.648674172703 
38.881729404639  38.39435382191 44.627271244512 38.882393899498 38.374734805372 44.603526697877 38.883846755565  38.34817577281 44.571050732513 
38.884902084855 38.337521272089 44.557739028803 38.889095997049 38.303458049798 44.514688477855 38.889550712835 38.300734390811 44.511174563924 
 38.89240522373 38.286197195886 44.492162922162 38.896582107534 38.264416638097 44.463738428274 38.897447487206 38.260604071931 44.458682320009 
38.906534178696 38.228835376785  44.41542596899 38.909442582453 38.220001833756 44.403169084242 38.919933695964 38.193827075789 44.365726473368 
  38.9250915612 38.182124791525 44.348705994829 38.937069623516 38.159342824401 44.314408330548 38.944019707565 38.146998548234 44.295548387603 
38.958681886267 38.124780016969 44.260310432296 38.965981944825  38.11429200299  44.24344933895 38.986194601516 38.089285483604 44.201562921615 
38.991186885338  38.08335514387 44.191510173268 39.014127322973 38.059464483758 44.149314621442 39.019369768959 38.054034559089 44.139707221425 
39.020897679305 38.052665993382 44.137161778882 39.050014864031 38.027264593749 44.089461807422 39.067521193079 38.014213603951  44.06342603632 
39.083442623456 38.002531073407 44.039969780144 39.110552889649 37.985521095493 44.003459601242 39.119660606936 37.979883963274 43.991286059401 
39.127043623892 37.976065084799  43.98231116429 39.158156854511 37.960220546603  43.94478560378 39.200266403922 37.943089174766 43.899129806379 
39.200375121781 37.943045845106 43.899013003687 39.200510781836 37.943004965643 43.898882948438 39.246680391818  37.92916060617 43.854702085136 
39.293798789456 37.918186154497 43.813366914195 39.293969040598  37.91814851635 43.813219957643 39.294105674273 37.918125996155 43.813111164851 
 39.34284845499 37.910254136627 43.774493141454 39.364908197162 37.907760515666 43.758287649435 39.390864968546 37.905118830553 43.739567335548 
39.417120091175 37.903439147221 43.721812719597 39.452801872718 37.901813353998 43.698465232734 39.476526151029 37.901759656337  43.68416424496 
39.520494438497 37.902657064464 43.658846473542 39.551385259486 37.904761731916 43.642813158957 39.586198357571 37.907094840701 43.624697896291 
39.637292324321 37.912178216588 43.600085079685 39.650371941517 37.913319747588 43.593594290843 39.690581803725 37.917732640165 43.574715248338 
39.713152495266 37.920226861549 43.564138448492 39.720010583026 37.921098034452 43.561059524514 39.775818641972 37.927034116289 43.534632434391 
39.797379018448 37.929665044455 43.524824606168 39.836988447286 37.933155468658 43.505208190166 39.869486024713 37.936849692993 43.490102154623 
39.896805560754 37.939266006688 43.476582836301 39.937178180497 37.944194382499 43.458219524665  39.95618327829  37.94619788089 43.449198521159 
40.001346702708 37.952437533581 43.429520579884 40.015816909736 37.954207932481 43.422943614801 40.062609412965 37.961307761173 43.403311625145 
 40.07636796723 37.963173446973 43.397275114678 40.122356075649 37.970552688311 43.378458336385 40.138917373354 37.972876658127 43.371285219912 
40.180833614698 37.979673047135 43.354218425873 40.203239851862 37.982808509065 43.344503364592 40.238345237043 37.988622773061 43.330355122353 
40.268233580868 37.993035031381 43.317669333754 40.295090890421 37.997811374206 43.307235732821  40.33300927604 38.004039348362 43.291891688331 
40.350925644774 38.007480135477 43.285234349303 40.396623979974 38.015784703856 43.267692564815 40.406232084456 38.017763003762 43.264280771491 
40.459252518979 38.028259306514 43.244953017635 40.461198814613 38.028681750651 43.244287723488 40.475723694576 38.031724862037 43.239192421507 
40.516030773207 38.040133779437  43.22501013509 40.521414632643 38.041222763735 43.223075090996 40.570672259398 38.051800316623 43.206102106086 
40.583785405097 38.054539022805 43.201491765795 40.625215857046 38.063628964971 43.187445725871 40.647061435254 38.068321314527 43.179919748357 
40.680034119625 38.075705224766 43.168919164374 40.711499542223 38.082625326443 43.158271185663 40.734973670543 38.087969426514 43.150543459752 
40.776172615047 38.097247721768 43.136860480922  40.79084440375 38.100656387407 43.132112011786 40.837949588536 38.111529933692 43.116782940263 
40.846204059142 38.113479407398 43.114149169284 40.894682984431 38.124814641279 43.098545095594 40.902168590289 38.126580254967 43.096153939778 
40.946504363074 38.136909458628 43.081839065842 
POLYGONS 1 437
436 0 1 2 3 4 5 6 7 8 9 10 11 12 13 14 15 16 17 18 19 20 21 22 23 24 25 26 27 28 29 30 31 32 33 34 35 36 37 38 39 40 41 42 43 44 45 46 47 48 49 50 51 52 53 54 55 56 57 58 59 60 61 62 63 64 65 66 67 68 69 70 71 72 73 74 75 76 77 78 79 80 81 82 83 84 85 86 87 88 89 90 91 92 93 94 95 96 97 98 99 100 101 102 103 104 105 106 107 108 109 110 111 112 113 114 115 116 117 118 119 120 121 122 123 124 125 126 127 128 129 130 131 132 133 134 135 136 137 138 139 140 141 142 143 144 145 146 147 148 149 150 151 152 153 154 155 156 157 158 159 160 161 162 163 164 165 166 167 168 169 170 171 172 173 174 175 176 177 178 179 180 181 182 183 184 185 186 187 188 189 190 191 192 193 194 195 196 197 198 199 200 201 202 203 204 205 206 207 208 209 210 211 212 213 214 215 216 217 218 219 220 221 222 223 224 225 226 227 228 229 230 231 232 233 234 235 236 237 238 239 240 241 242 243 244 245 246 247 248 249 250 251 252 253 254 255 256 257 258 259 260 261 262 263 264 265 266 267 268 269 270 271 272 273 274 275 276 277 278 279 280 281 282 283 284 285 286 287 288 289 290 291 292 293 294 295 296 297 298 299 300 301 302 303 304 305 306 307 308 309 310 311 312 313 314 315 316 317 318 319 320 321 322 323 324 325 326 327 328 329 330 331 332 333 334 335 336 337 338 339 340 341 342 343 344 345 346 347 348 349 350 351 352 353 354 355 356 357 358 359 360 361 362 363 364 365 366 367 368 369 370 371 372 373 374 375 376 377 378 379 380 381 382 383 384 385 386 387 388 389 390 391 392 393 394 395 396 397 398 399 400 401 402 403 404 405 406 407 408 409 410 411 412 413 414 415 416 417 418 419 420 421 422 423 424 425 426 427 428 429 430 431 432 433 434 435 

CELL_DATA 1
FIELD FieldData 6
ClosedSection 1 1 int
1 
SectionArea 1 1 double
        13.3427 
SectionLength 1 1 double
         13.365 
SectionMinSize 1 1 double
        1.50599 
SectionMaxSize 1 1 double
        2.49839 
SectionShapeFactor 1 1 double
       0.602785 
