# vtk DataFile Version 4.2
vtk output
ASCII
DATASET POLYDATA
POINTS 463 double
38.125580233518 41.298550974755 30.891566240912 38.110691986027 41.320929245867 30.882884404882 38.093540884728 41.348770131491  30.87204237224 
 38.07993738618 41.369254753905 30.864094449626 38.061357260763 41.399988942254 30.852115136414 38.049903199425 41.417518874356 30.845308028394 
38.027596717415  41.45438540965 30.830939070405 38.019546080813 41.467095372913 30.825996038711 37.990092799936 41.513696509579 30.807870468654 
37.986582476426 41.518932227342 30.805840034431 37.974471449035 41.535694782878 30.799365480548 37.952194386377 41.569127144494 30.786396149101 
37.943168047801 41.581330143236 30.781688984493 37.916600429998 41.617009285052 30.767931435789 37.883226055896 41.658092540303 30.752173160642 
37.879746345443 41.662401388566 30.750519803255 37.874408555018 41.668396138109 30.748234365827 37.843932145399 41.706638933696 30.733547980631 
37.821166266178 41.732311473487 30.723757802907 37.807167338461 41.748087278561 30.717742004124 37.786665732595 41.768884363563 30.709872528613 
37.769876787237 41.787629887404  30.70272890452 37.756476311771 41.801076820004 30.697644992061 37.731908470696 41.825474445434 30.688428521917 
 37.70005538834 41.854095201195 30.677707227299  37.69275040699 41.861224240637 30.675017921162 37.686013949807 41.867132153575 30.672809640088 
 37.65294385049 41.895878350712  30.66207351053 37.614839098888 41.925637840767 30.651074404814 37.611318322057 41.928594520759 30.649973706382 
37.607806840898 41.931273414573 30.648986015651 37.568957650775 41.960746818838 30.638125797504 37.526994524671  41.99023198717 30.627353717109 
37.524832968823 41.991853419042 30.626756985832 37.522588470053 41.993443807747 30.626175389825 37.480557264674 42.023120829272  30.61532710081 
37.436115205092 42.053371730636 30.604316727342 37.435436937911  42.05385856686 30.604138431509 37.434781258348 42.054313922137 30.603972299924 
37.390524722457  42.08495856017  30.59279581813 37.349780981512 42.112381066659 30.582828527881 37.345042595613 42.115538476637 30.581682308423 
37.339227418514 42.119347369721  30.58030254174 37.299691287716 42.146256366967 30.570508626737 37.268847172396  42.16699655519 30.562971026354 
37.254287489571  42.17670356329 30.559446904463 37.234032490635 42.189959105303 30.554645616793 37.208889744375 42.206799242567 30.548528355158 
37.191309684471 42.218183082088  30.54441054076 37.163458634262 42.236083155909 30.537941851249 37.120285287365 42.262731476248 30.528362796555 
37.117710265559 42.264339997031 30.527783670478 37.116100472433 42.265293628278 30.527442810395  37.07137015744 42.291533100771 30.518076957287 
37.042417545803 42.307578322598 30.512397578696 37.024506136323  42.31736689131 30.508940227395 36.991989179299 42.334071687462  30.50309824283 
36.977083303743 42.341795279295 30.500393318234 36.968969613689 42.345720796367 30.499034589677 36.929004852632  42.36469471874 30.492489502808 
 36.89575838775 42.379341242574  30.48750868292 36.880454400926 42.385905597612 30.485288393089 36.847726926851 42.398822603832 30.480997405665 
36.830996491113 42.405480807132 30.478781415503 36.823031660684 42.408375786227 30.477838512187 36.780410496819 42.423271416337 30.473035890787 
36.749654578534 42.432956389609 30.470004131068 36.728479805419 42.439308874726 30.468045458188 36.674978365981 42.453499022748 30.463855263782 
36.674628141234 42.453586107393 30.463830201877 36.673619135801 42.453802070474 30.463772242811 36.619183434682 42.465564771396 30.460599878646 
 36.59974134484 42.469081019642 30.459746151378 36.561761901945 42.475232330385 30.458371055007 36.525077167213 42.479935145858 30.457548034962 
36.502314848691 42.482381211454 30.457229835407 36.451853157991  42.48616201932 30.457193995843 36.441180950127 42.486741049343  30.45727637087 
36.380453971936  42.48820010677 30.458493741079 36.378697982446 42.488206672867 30.458543470774 36.360983597959 42.487773786373 30.459248693163 
36.315294618114 42.486661020066 30.461066080926 36.310824745901 42.486426960888  30.46129493674 36.251407087313 42.482265595161 30.464765318349 
 36.24278513552 42.481434155314 30.465361713106  36.18716236464 42.475151356087 30.469583986994 36.175951172437 42.473611093664 30.470546725401 
 36.12267648405 42.465509736388 30.475440554526 36.109928587715 42.463271500349 30.476733799317 36.057934787548 42.453435855147 30.482296667507 
36.044466965607 42.450570503697 30.483867144979 35.992894508871 42.438892449333 30.490168798685 35.979395294732 42.435501742968 30.491954460216 
35.927628091618 42.421739831602 30.499111752457 35.914765524303 42.418043848738 30.501002909357 35.862167950329 42.402134849886 30.509060596608 
35.850483459709 42.398393396052 30.510935137556  35.79660968311 42.380332788431 30.519908369493 35.786421158716 42.376776308533 30.521662828398 
35.730959651999 42.356612762353 30.531541054148 35.722447005076 42.353437900752 30.533089867216 35.665523772922 42.331423403855  30.54376656197 
35.658417458963 42.328614015365 30.545124357982 35.600644724677 42.304915787672 30.556513055311  35.59439031779 42.302301593362 30.557765823243 
35.536560488497 42.277184112044 30.569735016257 35.530691689042 42.274594029749 30.570966442528 35.473536089607 42.248321025501 30.583386751758 
35.467619969494 42.245564933129 30.584687291569 35.411544983507 42.218297284354 30.597480980026 35.405521270172 42.215337101052 30.598867962118 
35.350548891574  42.18709710785 30.612025279097  35.34468420493 42.184059483004 30.613439096799 35.290554632277   42.1547216275 30.627018984029 
35.285136418969 42.151767043707 30.628385611435 35.231535367449 42.121182406233 30.642458180279  35.22693133126 42.118547516507 30.643670132841 
 35.17376480572 42.086719024604 30.658236994688 35.170242752416 42.084601774923 30.659205554583 35.117527759231 42.051551688635  30.67425712392 
35.115303628989 42.050151198858  30.67489464253 35.063389856193 42.016123704051  30.69032090048 35.062251446499 42.015374293356 30.690660496549 
35.011847737963 41.980891068876 30.706227539688 35.011146239508  41.98040904226  30.70644505315 34.962982673064 41.946040807259 30.721898344996 
34.962132495317 41.945432727583 30.722171702006 34.916832481944 41.911840219759 30.737223178708 34.915286144259 41.910694662376 30.737736503591 
34.874718115918 41.879566516123 30.751641752895 34.872500969403 41.877855566259 30.752405673088 34.838119356788 41.850296175573 30.764670900082 
34.835256718787  41.84797961503 30.765701061539 34.807799434022 41.825293724262 30.775772150077 34.773553529406 41.796269559245 30.788630682546 
34.768883751824 41.792288257854 30.790393682863 34.757347339494 41.782074090426 30.794903468502 34.726488970625 41.755050346645 30.806845100038 
34.717017521419 41.746560528401 30.810590042961 34.679741949597 41.712797091529  30.82547173778 34.665112660167 41.699229854291 30.831441259481 
34.633463520466 41.669830652863 30.844375236744 34.616996842362 41.654056712959 30.851299519779 34.588199020538 41.626609365999 30.863352405726 
34.572072874099 41.610642546918  30.87034518446 34.542883240261  41.58195097056 30.882917178356 34.529116111311 41.567768342909 30.889111933817 
34.497277722164 41.535167657398 30.903357169679 34.487863143302 41.524947290545  30.90780615749 34.450958947286 41.485349421001 30.925056132713 
34.447873580067  41.48181389902 30.926590051217 34.433240927449 41.465248594399 30.933782327544 34.408734462193 41.438105931049 30.945582883828 
34.403333735131 41.432299265629 30.948112108555 34.370413216724 41.393516437535 30.964910805643 34.354516353304 41.375227805104 30.972843609732 
34.332797351235 41.347432923388 30.984826958147 34.305619175149 41.312526860183 30.999873275726 34.296361056662 41.299146257473 31.005606382829 
34.271344752076 41.262133496787 31.021447320438 34.261446206784 41.248364461744 31.027357949251 34.257731312306 41.243164448495 31.029589459036 
34.227874500022  41.19536114612 31.049975396825 34.211979667742 41.169042599078 31.061182852961 34.196258708916 41.138888950178 31.073949128588 
34.171620503815 41.090993208753 31.094217015188 34.167097567859  41.08029566443 31.098714611811 34.142856824266  41.02133757249 31.123482019071 
34.142368871068 41.019388140014 31.124291588132 34.123471039721 40.959140790364 31.149425313886 34.122621888563 40.954603042609 31.151301214439 
34.108065002086 40.900794238112 31.173679655142 34.106595611185 40.891032178931 31.177704614762 34.095215369125 40.844980924307 31.196824610153 
34.093314604742 40.828148648318 31.203745778436 34.084749577071 40.789741007026 31.219664580312  34.08262260606 40.763435775284 31.230455704963 
34.077634219787 40.734147678178   31.2425486831 34.076608785464 40.695514082566 31.258334613452 34.074933770928 40.677686220461 31.265655058328 
34.078024808614 40.623387266776 31.287706687145 34.077946408869 40.620785708318  31.28876997929 34.079020914689 40.611688221138 31.292447994551 
34.082429108074 40.562484358636 31.312412307673 34.084785028843 40.549801700505 31.317514162535 34.090721489177 40.503502328207 31.336218527469 
 34.09632917273 40.476304079474 31.347142996586 34.101476042278  40.44300950877  31.36056738494 34.107475267422 40.405840640239 31.375546328182 
34.109178686462 40.383460062666 31.384622605543 34.114355604429 40.338171272916 31.402937509146  34.11461761896  40.33070758764 31.405973485672 
34.115579104323 40.319060396641 31.410694679276 34.115470631196 40.280673820807 31.426352504798 34.120473964249 40.233865484388 31.445292281643 
34.120583720023 40.229226548016 31.447180829801 34.121154032842 40.226442098738 31.448299346604 34.124312761633 40.176220363522 31.468686207868 
34.130544829825 40.145457604246 31.481045700025 34.132558508675 40.122518796633 31.490340371793 34.142839244453 40.070841505696 31.511108273213 
34.143165687342 40.068665753315 31.511985833107 34.143399411334 40.067748020529 31.512353122024 34.150597674693 40.014506197897 31.533851057857 
34.155648901538 39.990396670322 31.543532510263 34.159046099765  39.96026476272 31.555719338782 34.167858450352  39.91309428173 31.574693123312 
34.168614049521 39.905851819241 31.577624151044 34.171762618408 39.887728082904 31.584921297943 34.176855356977 39.851106640417 31.599704047166 
34.180168591006 39.836957987588 31.605375184405 34.186638929685 39.796116435028 31.621837839734 34.195266028765  39.76297193185 31.635097161107 
34.199515010046 39.741424513312 31.643757692226 34.214076943533 39.690465170316 31.664105032139 34.214724859151  39.68769880213 31.665213859164 
34.216972765329 39.680591323542 31.668045300705 34.230250899454 39.635752037084 31.685935110011 34.237450752615 39.616406862788 31.693609466141 
  34.2476487616 39.584771782925 31.706206339604 34.264485845938 39.540650387375 31.723697166113 34.267492674922 39.532523014824 31.726921884802 
34.270474522178 39.525797602387 31.729575609923 34.288481101316 39.479730082145 31.747825190056 34.308576633181 39.437715283891 31.764359668167 
34.313574964638 39.426532317743 31.768771064792 34.329912050063 39.394477808094 31.781355767137 34.338630174623 39.376961815467 31.788238844376 
34.342306768768 39.370350574497 31.790825274062 34.363176878276 39.330482980814 31.806460974561 34.386171894018  39.29137109102 31.821725070584 
34.389585087619 39.285322104672  31.82409006607 34.393832314169 39.278456450404 31.826763218591 34.417930778517 39.238883940021 31.842182229818 
34.440793854877 39.204347581242 31.855584297353 34.449133832757 39.191220616055 31.860688752945 34.459929817244 39.175565993606 31.866750723465 
34.481850802439 39.143175541827 31.879305776473 34.500365193274 39.117849973711 31.889081339761 34.516494598981 39.095223540586 31.897827337445 
34.540280622307  39.06448710927 31.909652195538 34.552848766469 39.047911449386   31.9160368881 34.561850259183 39.037029156354 31.920206191777 
34.590807027701 39.001346564842   31.9338938432 34.624163194766  38.96384132106  31.94819349809 34.630787047927 38.956271771406 31.951082778764 
34.643267420408 38.943241555555 31.956024208684 34.672358899603  38.91231324829 31.967768975363 34.689043438686 38.896111458398 31.973878344802 
34.715556254654 38.869789915001 31.983821368179  34.75784447811  38.83138651463 31.998220727122 34.760590092541  38.82882177362 31.999184721991 
34.765857358941 38.824308240496 32.000868203216 34.806661518651 38.788714435138 32.014166061433 34.829674266588  38.77058669493 32.020871995468 
 34.85439002153 38.750558266341 32.028302230906 34.903080180428 38.715388142476 32.041191948464 34.903317563281 38.715211424668 32.041256931801 
34.903784103001 38.714904717561 32.041368087433 34.953137600658 38.682051671944 32.053293070413 34.981368942888 38.665748795785 32.059099050342 
35.004070226072 38.652144044851 32.063969741082 35.040502752067 38.633034092372 32.070675722376 35.055908773813  38.62487518848 32.073543246536 
 35.06698475678 38.619702770173 32.075322069516 35.108484981506 38.599557960057 32.082298835097 35.160941435392 38.576944654718 32.089955299658 
35.161621931904 38.576639248568 32.090059539209 35.162442414623 38.576311376218  32.09016876291  35.21437603888 38.555649368851 32.097045064411 
35.265504829011 38.537358138321 32.102978549856 35.268605935323  38.53628342474 32.103324280839 35.273577289084 38.534739978091 32.103805350324 
35.325717546336 38.517782422646 32.109164757022  35.35198675255  38.50979532431 32.111638005105 35.387354284136 38.499856025647 32.114635848883 
35.431174850185 38.487994517703 32.118165316267 35.455561333556 38.482421480938 32.119710265717 35.497260043736 38.472618535685 32.122463548853 
35.522294757339 38.467435948098 32.123829921203 35.562333344947 38.458959125219  32.12609193919 35.584509425516 38.454776942383 32.127135648143 
 35.62827967861 38.446336928556 32.129271283458 35.643862396092  38.44365093085 32.129901605649 35.696715792584 38.434385505167 32.132102769502 
 35.70249572432 38.433474190885 32.132301914494 35.729834141093 38.429114126042 32.133264096507  35.76061225168 38.424053611496 32.134409274272 
35.767276683404 38.422940829725 32.134664182684 35.818511258567 38.415255035264 32.136269464262 35.839029664988 38.412155922443  32.13692095518 
35.876259787376 38.407092940861  32.13787457898 35.910940599032 38.402353410541  32.13877237887 35.933859429496 38.399552093678 32.139230783819 
 35.98239695797 38.393614682037 32.140203543434 35.991775273957 38.392604248489 32.140335717016 36.033272581694 38.388200743026 32.140893043144 
36.050135099239 38.386329826709 32.141152768039 36.053947396735  38.38591236596 32.141209236553 36.109023659732 38.380692808543 32.141694096776 
36.126082671438 38.379142692429 32.141817130453 36.168961306173 38.375953357615 32.141838074977 36.198276232326 38.373995668922 32.141761545192 
36.230186215171  38.37240012818 32.141459876983 36.269826749076 38.370863602335  32.14090342365 36.292173694104 38.370393312235 32.140428270841 
36.341469865883 38.370227834481 32.139024512559 36.355993926354  38.37038672099 32.138526246341 36.411859918276  38.37186426842 32.136256363126 
 36.41898562004 38.372107987971 32.135944304539 36.445236249215  38.37364232634 32.134535130598 36.475524391701 38.375126624792 32.133025864204 
36.489881991523 38.376381374652 32.132085657434 36.529925042344 38.379453638474 32.129637661437 36.562814246408 38.383080653594 32.127176936314 
36.587311497366 38.385533142759 32.125445657011  36.62826693177 38.391098747298 32.121953611375 36.645791515464 38.393311237617 32.120528305993 
36.655628596809 38.394901837337 32.119586049613 36.704109423428 38.402544193542 32.115022480241 36.743556354096 38.410317314525 32.110675199439 
36.761301122563 38.413792692821 32.108728299085 36.798310677705 38.422428041938 32.104102132848 36.816891308405 38.426529317532 32.101875036452 
36.825575073606 38.428730307267 32.100718275076 36.869836888377  38.43993706974 32.094827006706 36.904481654996 38.449818276166 32.089763339278 
36.920752709623 38.454417650337 32.087402040456 36.944339155105 38.461686873362 32.083733611965  36.97142500983  38.46969087393 32.079661091067 
36.996939068678 38.478147264756 32.075450989218 37.024757152537 38.487063778584 32.070984479163 37.051383113185  38.49660487098 32.066298836015 
37.082931624831 38.507513964385 32.060908389366 37.129077501552 38.525571625292 32.052166998031 37.149385402495 38.533193797385 32.048452479964 
37.158720480625  38.53709596249 32.046582516818  37.22552844938 38.566478314371 32.032606097068 37.227772785462 38.567493067499 32.032125284273 
37.243272794975  38.57477281609 32.028693902693 37.288068222399 38.595610445718 32.018859104934 37.294585614493 38.598819043097 32.017356082247 
37.339507436012 38.620772864886 32.007062313322  37.35498312914 38.628668875179 32.003380337232 37.384093706468  38.64330840723 31.996541325042 
 37.42152427668 38.662519092955 31.987589821895 37.426715302788 38.665141894723 31.986365280281 37.431359321095 38.667616633329 31.985217446345 
37.475009192812 38.690553924782 31.974560565887 37.524592229011 38.718356430853  31.96174250707 37.533687356269 38.723368392878 31.959427114381 
37.542656206548 38.728726249986  31.95697442952 37.594512689239 38.759352385966 31.942937003592 37.639799682282 38.789663838317 31.929223976274 
37.659561363137   38.8035037878 31.922990062629 37.705059828844 38.837085878379 31.907936911424 37.721715149561 38.849730652512 31.902283116384 
37.764091855734 38.883612363397 31.887200944583 37.774523964776 38.892269112412 31.883359254074 37.802254604433 38.916796375183 31.872529069742 
 37.81661635959  38.92926351409 31.867016168238 37.826752473592 38.938905754322 31.862781414444 37.855995560868 38.966417669929 31.850688907559 
 37.87062003562 38.981304772824 31.844181269682 37.897225708969 39.008021061631 31.832491944173 37.921790366469 39.035004649299 31.820754524454 
37.938556471746 39.053214440868 31.812827930291 37.968809293882 39.088895506194 31.797373793195 37.978853501827  39.10062347643 31.792291192161 
38.012778468586 39.143013250476 31.773991553812 38.018528812447 39.150139020074 31.770913945458 38.054456869051 39.197783580112 31.750411548972 
38.057086808329 39.201235122386  31.74892547081 38.093451745252 39.252185252517 31.727061977445 38.094001916183 39.252953533504 31.726732241769 
 38.11026765098 39.277169566144  31.71637115115 38.128599127419 39.304422900589 31.704709753944 38.129138839665 39.305286960802 31.704341270285 
38.159303341048  39.35277492366 31.684074749437 38.160336156756 39.354515043865 31.683334279477 38.184895242443 39.394884205684 31.666138199731 
 38.18659274452 39.397795339774 31.664900336218 38.206013530537 39.430113964738 31.651140731546 38.227387143168 39.466402675241 31.635703787843 
38.232269126471 39.474866574623  31.63210638744 38.240073580977 39.488965501317 31.626123722213  38.25917615645 39.522226547622 31.611989281781 
38.267556454217 39.536940205849 31.605738734326 38.286809727967 39.572637825966 31.590606127072 38.304477411638   39.6048425368 31.576945299468 
38.313001206579 39.621161113095 31.570035961074 38.332532684756  39.65806881818 31.554401561068 38.338348022348 39.668652251814 31.549911928717 
38.340940185512 39.673332892755 31.547925734174 38.363617087731 39.716293086029 31.529729168878 38.377968068376 39.743245662381 31.518309222825 
38.388638357228 39.764489531572 31.509327218346  38.41199545555 39.810604095386 31.489823955735 38.413174765215 39.812826244971 31.488882535274 
38.413735158456 39.813874941096 31.488438137258 38.437192857852 39.861043939098 31.468501859047 38.449633781724 39.886030855319  31.45794054255 
38.460320562775 39.909137114161 31.448198537042 38.478759161644 39.949842840271 31.431047867327 38.482240486685 39.957019161491 31.428017362091 
38.484254042289 39.961315880036 31.426205005048 38.503176115757 40.004731899196 31.407934610241 38.517290891844 40.038589892235 31.393705587185 
38.522539641665 40.052193294777 31.388001278623 38.530592256827  40.07433759787 31.378730188849 38.540608875755 40.099327268592 31.368240102321 
38.546554472146 40.115269187825 31.361561316242 38.557067869074 40.145989707257 31.348719282295 38.570664897843 40.190697677205 31.330080937461 
38.571052063156 40.192113643904 31.329491931295 38.571594143486 40.194513357503 31.328497115806 38.583307838312 40.238209087755  31.31032778466 
38.588697079737 40.263631439443 31.299799348631 38.592249538033 40.283913345406 31.291422077746 38.597126309796 40.323108731551 31.275292098249 
38.598154426047 40.329081959057  31.27282544756 38.598573235652  40.33229380266 31.271503112988  38.60233576963 40.373150258829 31.254728980046 
38.603621427877 40.397655243673 31.244697130472  38.60385525483 40.416357053353 31.237063289613 38.603169622865 40.451089725309 31.222919277771 
38.603453456783 40.459296047749 31.219564152487 38.603327550072 40.464353971125 31.217505217531 38.602112448714 40.502157574431 31.202124638477 
38.597458083344 40.533487853585  31.18948661721 38.595514261892 40.546660928661 31.184172464298 38.586656080265 40.580197191752 31.170760274346 
 38.58462870599 40.590199608192 31.166741654469 38.583395095524 40.593820452483 31.165301840053 38.568880155383  40.63367324661 31.149482505224 
38.564287445194 40.644086830647 31.145372767746 38.548096155448 40.680237544921 31.131113223995 38.545556085331 40.686453763093  31.12865397067 
38.539780273923  40.69668508741 31.124653870895 38.525100281746 40.728209102641 31.112236055783 38.494281140676 40.770263766563 31.096005365615 
38.492858401885 40.772401499375 31.095176029549 38.492102460025 40.773282357162 31.094839364351  38.45682373907 40.820927210825 31.076462011798 
38.447325660011 40.831526563338 31.072422915865 38.418231539607 40.868738172205 31.058115808817  38.40313317584 40.885434707346 31.051757335928 
38.378907093911 40.915989060452 31.040019865436 38.360558528385 40.936851964356 31.032059290636 38.340196871765 40.963114117595 31.021956906279 
38.320388690216 40.986970428034 31.012819140174 38.303717826554 41.009915772644 31.003959245672 38.283975793011 41.036437623863  30.99373246018 
38.270857372123 41.056386611208 30.985988499993 38.251736903661 41.084959631686 30.974906668101 38.241392872748 41.102292669855 30.968146727392 
38.223390024575 41.132158930322 30.956504138618 38.213935006121 41.149066792103 30.949891058305 38.197617182524 41.178452639668 30.938394099205 
38.186376005349 41.198236391663 30.930661498059 38.170829000402 41.224919496236 30.920243750695 38.156896089518 41.248492887146 30.911046015934 
38.141396353555 41.272687106765 30.901641860289 
POLYGONS 1 464
463 0 1 2 3 4 5 6 7 8 9 10 11 12 13 14 15 16 17 18 19 20 21 22 23 24 25 26 27 28 29 30 31 32 33 34 35 36 37 38 39 40 41 42 43 44 45 46 47 48 49 50 51 52 53 54 55 56 57 58 59 60 61 62 63 64 65 66 67 68 69 70 71 72 73 74 75 76 77 78 79 80 81 82 83 84 85 86 87 88 89 90 91 92 93 94 95 96 97 98 99 100 101 102 103 104 105 106 107 108 109 110 111 112 113 114 115 116 117 118 119 120 121 122 123 124 125 126 127 128 129 130 131 132 133 134 135 136 137 138 139 140 141 142 143 144 145 146 147 148 149 150 151 152 153 154 155 156 157 158 159 160 161 162 163 164 165 166 167 168 169 170 171 172 173 174 175 176 177 178 179 180 181 182 183 184 185 186 187 188 189 190 191 192 193 194 195 196 197 198 199 200 201 202 203 204 205 206 207 208 209 210 211 212 213 214 215 216 217 218 219 220 221 222 223 224 225 226 227 228 229 230 231 232 233 234 235 236 237 238 239 240 241 242 243 244 245 246 247 248 249 250 251 252 253 254 255 256 257 258 259 260 261 262 263 264 265 266 267 268 269 270 271 272 273 274 275 276 277 278 279 280 281 282 283 284 285 286 287 288 289 290 291 292 293 294 295 296 297 298 299 300 301 302 303 304 305 306 307 308 309 310 311 312 313 314 315 316 317 318 319 320 321 322 323 324 325 326 327 328 329 330 331 332 333 334 335 336 337 338 339 340 341 342 343 344 345 346 347 348 349 350 351 352 353 354 355 356 357 358 359 360 361 362 363 364 365 366 367 368 369 370 371 372 373 374 375 376 377 378 379 380 381 382 383 384 385 386 387 388 389 390 391 392 393 394 395 396 397 398 399 400 401 402 403 404 405 406 407 408 409 410 411 412 413 414 415 416 417 418 419 420 421 422 423 424 425 426 427 428 429 430 431 432 433 434 435 436 437 438 439 440 441 442 443 444 445 446 447 448 449 450 451 452 453 454 455 456 457 458 459 460 461 462 

CELL_DATA 1
FIELD FieldData 6
ClosedSection 1 1 int
1 
SectionArea 1 1 double
        15.1553 
SectionLength 1 1 double
        13.9367 
SectionMinSize 1 1 double
        2.08559 
SectionMaxSize 1 1 double
        2.30988 
SectionShapeFactor 1 1 double
         0.9029 
