# vtk DataFile Version 4.2
vtk output
ASCII
DATASET POLYDATA
POINTS 500 double
21.249217150343 35.480151967866 10.358125117028 21.239999764725 35.472853097069 10.359109453371 21.205574595947 35.446356821293 10.362584644873 
21.169375691822 35.418770614722 10.366166393032 21.161912674176 35.413053640727 10.366912629675 21.154881359917 35.407743922983 10.367595537259 
21.117803005404 35.380463836562 10.371007162935 21.077832889021 35.351425356265 10.374587625938 21.073365768143 35.348174758079 10.374989157043 
21.069213101774 35.345217816337 10.375345346674 21.028192421147 35.316471138781 10.378742044566 20.983800486083 35.285884916107  10.38228015727 
20.982236327565 35.284815979247 10.382402512321 20.980295787537 35.283508684477 10.382549342497 20.935218160829 35.253889496589 10.385762981528 
20.899365662741 35.230948292533 10.388156599005 20.886996854855 35.222969799426 10.388999225494 20.868997311407 35.211702059596 10.390135146325 
20.837468536159  35.19273502355 10.391922068686 20.816587110219 35.180730313927  10.39295881348 20.786498640972 35.162982670415 10.394571150435 
20.736445406429 35.134785888651 10.396903816245 20.734640296457 35.133720404724 10.397000741324 20.731025898411 35.131672369608  10.39717232379 
20.682136253531 35.105346079271  10.39913076009 20.658773508231 35.093618568544 10.399841984524 20.629556001474 35.077560971433 10.401097837527 
20.583785631746 35.054411164628 10.402537098519 20.577168305047 35.050756077996 10.402826345396 20.559504496615 35.041865122774   10.4033704441 
20.524130496114 35.024840349233 10.404254509452  20.51173563083 35.019516131535 10.404395411359 20.470347311323 34.999655017157 10.405414450871 
 20.44230593045 34.987589521588 10.405738568618 20.415702962207 34.974552456512 10.406464955425 20.374750957567 34.956431313929  10.40707012968 
  20.3601613955 34.948927899645 10.407561635509 20.308984172298 34.924215257697 10.408862278687 20.304046559104 34.921416483019 10.409096930356 
20.268427707615 34.901789051939 10.410641556237  20.24825016465 34.890953326585 10.411442049481 20.245210761953 34.889414519372  10.41153802817 
20.192169954333 34.855752348314 10.415006115205 20.182948058172 34.850124719415 10.415549827274 20.137372758079 34.814921752488 10.420183454531 
20.123598798375 34.804477966249 10.421532384411 20.089519428956 34.767601630497 10.427776626595  20.07414321301 34.745517468598 10.432028299335 
20.055257166926 34.714922080135 10.438164446426 20.039399656365 34.680983555909 10.445489296266 20.029998236878 34.659712589494 10.450134821046 
 20.01748712475 34.619227375152 10.459524460934 20.012420093409 34.603065622594 10.463265431953 20.003215021615 34.558940211254 10.473950253859 
19.999824571036 34.544455207998 10.477420227236 19.993102249589 34.497709586804 10.489047808331 19.990502133077  34.48424358663 10.492329829366 
19.985002482528 34.434092297415 10.504978807943 19.982977993607 34.422716443551 10.507768913339 19.977335846904 34.366471163479 10.522008402565 
19.976476504613 34.361533191117 10.523221495287 19.975309609561 34.339093811712 10.529012742933   19.9723135569 34.301843903733 10.538518585369 
19.973214742365 34.293253179289  10.54087288691 19.971711477511 34.242622438297 10.554054835963 19.974097805568 34.216413023743 10.561200616586 
19.973154367338 34.183732612766 10.569711847894 19.975174098918 34.139246532774 10.581633959397 19.974531151654 34.125175966168 10.585274381179 
19.975335674688 34.081376480089 10.596891993878 19.975320642941 34.066516784012 10.600804153697 19.975593452976 34.061569757576 10.602134845128 
19.974291085444 34.007432209771 10.616260847879 19.975186477136 33.981629048126 10.623147905244 19.974134929199   33.9480467934 10.631885658844 
19.975552802616 33.898445509192 10.645093744721 19.975229806529 33.888695436558 10.647628811439 19.975811356829 33.870764716994 10.652410517087 
19.976056553533 33.831534008567  10.66276790258 19.977705093611 33.811523118693 10.668206058256 19.978502257375  33.77845614451 10.676996234379 
19.982752491402 33.735984359035 10.688614817014 19.983205535019  33.72724443039 10.690962809991 19.988826804462 33.675179040518 10.705247643357 
19.988963474919  33.67363075474 10.705669333245 19.993447187328 33.643592376365 10.714037013047 19.997194269111  33.61785681679 10.721196469396 
19.997448261308 33.616659104316 10.721537765946 20.008955498686 33.559175331886   10.7378486607 20.009718094557 33.556362773876 10.738667027372 
20.024655050293 33.498410866307 10.755450244865 20.025199037987 33.496764882814 10.755939116856 20.028555371363 33.486689985643 10.758934163526 
20.042823339033 33.441952146339 10.772169030677 20.046282171796 33.432150360716 10.775102577184   20.0624968772 33.390894941546 10.787618368729 
20.075413276613 33.358744212198 10.797400548268 20.083488686045 33.341035903994 10.802886292623 20.104798915001 33.295164094608 10.817136479908 
20.106040484864 33.292351569033  10.81800358108 20.106529045492  33.29126786643  10.81833872113 20.130433022514 33.243647207468 10.833313467831 
20.140191965325 33.223917451895 10.839502938878 20.156269888981 33.194581381359 10.848865538611 20.177691079765 33.154140669976 10.861696596307 
20.182925993122 33.145073721302 10.864617348072  20.19268886479  33.12743131552 10.870257460791 20.210368591257 33.094595048938 10.880704936994 
20.220021188114 33.075789043745 10.886640291871 20.237949703105 33.042897975074 10.897127519733 20.261811418802 32.996239378914 10.911844581292 
20.265482290194 32.989349578413 10.914032758594 20.274776160282  32.97085253446 10.919850234429 20.293074804348 32.934790154065 10.931210376543 
20.299706530182 32.921331441498 10.935429961535 20.319700808486 32.880865151142 10.948122545616  20.33534957162 32.848676843178 10.958192682911 
20.345073947393  32.82838020778 10.964527938851 20.369729190979 32.777356751614 10.980475354217 20.369946785067 32.776894711406 10.980619188166 
20.370508130978 32.775721757712 10.980985241857 20.394919511786 32.726146219444 10.996526493358 20.404484899234 32.707374084481 11.002444052712 
20.419914271756 32.675938027522 11.012293738632 20.439422340367 32.637815580877 11.024319530794 20.445071621976 32.626332012072 11.027918931069 
20.459425579153 32.598606403585 11.036681933145 20.470679407203  32.57740851029 11.043410204442 20.475274688682    32.569191894 11.046041906461 
20.496828263988 32.529321242702 11.058736296107 20.512637405939  32.50164777808 11.067633652384 20.523441062227 32.482215328373 11.073851135979 
20.548981434729  32.43887951745 11.087863884558 20.550883915663 32.435695258988 11.088896149272 20.551733011558 32.434348851173 11.089337169673 
20.579976211306 32.389458064366 11.104034516462 20.594803461863 32.367126432342  11.11142503874 20.611055882801 32.342998676061 11.119433650528 
20.638986651833 32.303606954684 11.132650879962 20.645002348199 32.295303733301 11.135449940973 20.680539654001 32.248770531447 11.151322149289 
20.682347797264 32.246405324203 11.152129095125 20.682654630562 32.246025071824 11.152260469586 20.723069879333 32.197669549351 11.169109040146 
20.727183710687 32.192995029675 11.170758843371 20.766244356523 32.150444907257 11.185940558133 20.772869829463 32.143545456069 11.188431953791 
 20.81230578923 32.104318629892 11.202776585608 20.820265841846 32.096726858944 11.205586135988 20.861928786371 32.059158967798 11.219720474171 
20.870146216808 32.052061248356 11.222426095358 20.916667477048 32.014568135566 11.237035147784 20.923562529373 32.009252863608 11.239136742307 
20.978310496022 31.970194503657 11.254995238649 20.981629098403 31.967936622331 11.255927630072 21.013780726876 31.947808253218 11.264500889967 
 21.04678986753 31.927109567445  11.27331162285 21.050280979809 31.925026413925 11.274215550697 21.120226168904 31.886100070679 11.291585830401 
21.131529341959 31.880033161397 11.294333983014 21.161745702387 31.865712015243 11.301180815307 21.203665434745 31.845917695109 11.310660150948 
21.225780202658 31.836960097515  11.31526988961  21.27037935141 31.818706849426 11.324616015861 21.328043067222 31.798992927432 11.335676371386 
21.335236139314 31.796541756578 11.337053958128 21.348669406966 31.792806551867 11.339404765578 21.400672900861 31.778475370256 11.348471420179 
21.431360792781 31.771686052625 11.353382534131 21.467445217234 31.763518582034 11.359205801702 21.529121701646 31.752817041756 11.368300872362 
21.542101316256 31.750591444559 11.370207918955 21.548212221713 31.749892724881 11.371013824593 21.625157185834 31.741506104917   11.3810530054 
21.633077138142  31.74091642762 11.382014290489 21.700936312883 31.736059235238 11.390199284069 21.712238526612 31.735505557925  11.39149528525 
21.772155968742 31.732717318763 11.398327171261 21.788331862129 31.732235620784 11.400100187401 21.841625737201 31.730589249485 11.405957281833 
21.863946554826 31.730165936236 11.408340262305 21.910229930315 31.729202052954 11.413304178458 21.939726280158 31.728881420576 11.416390337085 
21.978432568477 31.728250387931 11.420495502019 22.016032184543 31.727965835916  11.42439679113 22.046801475705 31.727487454662 11.427654038598 
22.092707861126 31.727119363739 11.432422672659   22.1156843803 31.726704278736 11.434870213824 22.169471663992 31.726123093205  11.44049697572 
22.185458105213 31.725769321671 11.442217019385 22.246502202249 31.724938340149 11.448648065051 22.256241498431 31.724683508999 11.449706306146 
22.324062477604 31.723602019917 11.456892982538 22.328070994463 31.723483666333 11.457332082896  22.37808421346 31.722609610063 11.462651910262 
22.400352007874 31.722194498559 11.465027334655 22.402194458154  31.72217872739 11.465218986336 22.472669197542 31.720768751004 11.472762239767 
22.480896439464 31.720700956272 11.473617344926  22.54436202387 31.719338759235 11.480434724037 22.559483180785 31.719222531919 11.482004148103 
22.614813556201 31.718403225274  11.48785065897 22.636974094839 31.718418872257 11.490101716911 22.683746571761 31.718340267823 11.494882245397 
22.711954522619 31.718745999987 11.497645982321 22.751026652246 31.719318180517 11.501471479637 22.783177218308  31.72020049933 11.504510917334 
22.815729828136 31.721164125865 11.507569854715 22.848011372497 31.722410449353 11.510526751339 22.878132198404 31.723887791522 11.513202916491 
22.905421768158  31.72535229815 11.515594337933  22.94501055506 31.727911343067  11.51894912046 22.957614687775 31.728642352348 11.520039256309 
22.971718006427 31.729874033567 11.521150092565 23.013408714265 31.733029168774 11.524561782227 23.065945851878 31.739969764571 11.528080264541 
23.075574933644 31.741188054395 11.528739304678 23.118428679479 31.747974283542  11.53131300798 23.137685299499 31.750901106719 11.532501812724 
 23.14107594341 31.751514482388 11.532685314881 23.197198009908 31.761877525327 11.535667228437 23.206524998671 31.763845272743 11.536098136665 
23.258047998765 31.775000601146 11.538403354692 23.262079173798 31.775893537317 11.538578411269 23.270847593948 31.778103866843 11.538888586123 
23.315156404942  31.78845738012 11.540670827346  23.34555216281 31.797097381163 11.541488497582 23.368976687285 31.803530676155 11.542177930293 
23.395075063507 31.811470941978 11.542742568772  23.42401221341 31.819602721106 11.543545656525 23.445766333295 31.826293406991 11.543997309003 
23.478070034031 31.836252753667 11.544661657886 23.527229498887 31.853483828848 11.545126142704 23.533272600654 31.855631251116 11.545175542356 
23.548265280892 31.861667448513 11.545111489996 23.589946106917 31.877512501489 11.545179952353 23.606068805028 31.884383020652 11.545011156407 
23.647433991002 31.902367127334 11.544484121758 23.687569699785 31.921672925584 11.543483866674  23.70502482962 31.930112453707 11.543037426812 
23.734977165519 31.946767979218 11.541698874008 23.760637919084  31.95993362295 11.540842737672 23.776378054981  31.96947009269 11.539932862283 
 23.81457597748 31.991504486082 11.538016760467 23.859179781007 32.021512701214 11.534652442071 23.865977032627 32.025773908015 11.534221867753 
23.871615746696 32.029824396832 11.533728892337 23.916193125118  32.06060516446 11.530158412875 23.959749664262 32.096286983033 11.525193227235 
23.962731343767 32.098531285943 11.524905563575 23.965788653547 32.101318391317 11.524482635247 24.007824084632 32.137494085058 11.519232578299 
24.038646984669 32.168511448244 11.514200053412 24.049702176639 32.178934691997 11.512579857091 24.065063448815 32.195292103481 11.509834953062 
24.090014112509 32.220629102395 11.505700909394 24.106116050937  32.23914284134 11.502463454437 24.128711677407    32.263605167 11.498320117228 
24.162794031945 32.305377703125 11.490786636426 24.165972362551  32.30909601981 11.490130764998 24.167683727284 32.311273984987 11.489731298857 
24.204635035457 32.356657299376  11.48153878577 24.218585822686  32.37483429412 11.478171108159 24.249457370676 32.416994664075 11.470208731742 
24.258086238384 32.428958456795 11.467935875389 24.294512066156 32.480295824814 11.458121730792 24.295895090684 32.482280319244 11.457739806516 
24.302414040371 32.491675356919 11.455928782047 24.332684512776  32.53401989564 11.447856731195 24.338972987664 32.542571307024  11.44624444338 
 24.36927081982  32.58493444179 11.438170279051 24.383962598288 32.604588216704 11.434489060133 24.405787700178 32.634841693544 11.428742058984 
24.428770947658 32.666123142713 11.422842173742 24.441246543643 32.683750810228 11.419469052201 24.471949715276 32.727206598017 11.411148358714 
24.474959770251 32.731628626399  11.41029002175 24.484786139277 32.746212213882 11.407449038298 24.507323836219 32.777587506248 11.401479095309 
24.514808539989 32.788109564123 11.399469521077 24.537809137687 32.821144419041 11.393109596235 24.557295141057  32.84941705416 11.387646261948 
24.566637178539 32.863331240632 11.384932294499 24.582415384442 32.887463024154 11.380182235782 24.595102754309 32.905022872304 11.376848527526 
 24.60429254363  32.91845170193  11.37424689788 24.624391667681 32.947082624536 11.368751593766 24.646732142021 32.983812518851 11.361351305872 
24.653388470169 32.993224170235 11.359549886141  24.65909502062 33.002391502769 11.357716159535 24.683215650935 33.040199383075  11.35021311436 
24.707958011588  33.08632223003 11.340583376005 24.710321488751 33.089977406731 11.339861210149 24.712245993301 33.093544157163 11.339117661383 
24.737890900791 33.140331809185 11.329404677387 24.758338325789 33.186981140711 11.319199199146 24.761324913648 33.193704690946 11.317732308075 
24.764668077633 33.204140182495 11.315324067353 24.783198270656 33.248099192452 11.305632047516 24.793082668713 33.280969421885 11.297980704079 
24.800225114513 33.305550474449 11.292233495898 24.806217685257 33.351151165692 11.280833198577 24.809400967189 33.364644222671 11.277603397564 
24.809643877289 33.373074898462 11.275407678513 24.813468491126  33.42419815777 11.262332245195 24.810303889531 33.461406504776 11.252210406676 
24.809953931478 33.483871675929 11.246258002737 24.801649173618 33.540474797467 11.230504952454 24.801510430781  33.54261049842 11.229928340522 
24.800268434573 33.549830202482 11.227900450263 24.793835955045 33.600807029156 11.213819765255 24.790284771525 33.615149777166 11.209680839437 
24.784792944238 33.659743925292 11.197376925701 24.778497623133 33.687358343829 11.189463299786 24.775144588168  33.71911077175 11.180759244205 
24.768038709026 33.755103403267 11.170556509948 24.764994548574 33.780839427946 11.163468464265 24.758506921261 33.816463662935 11.153425673592 
24.753098886545 33.850495251119 11.143912213417 24.747413347225 33.875737253833 11.136685480013  24.73743258998 33.926826617272 11.122214063138 
24.735178015515 33.935476063202 11.119706567408 24.729043937207 33.962445143331 11.111979317197 24.722910177415 33.996521245705 11.102380279247 
24.721704208522 34.006139900162  11.09972422901 24.712170106056 34.059843137145 11.084609834247 24.709362468002 34.085219805837 11.077640504187 
24.701788877712 34.125693170277 11.066210054874 24.697882621015 34.158895770536 11.057067759583 24.690305638843 34.193686513002 11.047133632186 
24.686093130036 34.230175182663 11.037094698682 24.680735827487 34.258672210618 11.029044072453 24.676034193252 34.301525812187 11.017278991583 
24.673147951067 34.319227305779 11.012323120395 24.666202478833 34.373263217792 10.997384540295 24.665532997043 34.379571284715 10.995655015749 
24.665368635178 34.381892087838 10.995027045187 24.658972178252 34.440923788379 10.978828564375 24.656892105726  34.46595755282 10.972023588209 
24.650703075034 34.510352607196 10.959701159744 24.648586795729 34.530280482169 10.954237268482 24.642645692445 34.571614153893 10.942746365656 
24.640905088847 34.584156650162 10.939265837836 24.635166684703 34.620179687999 10.929194257099 24.628780457874 34.657874962907 10.918616322982 
24.624871464476 34.677833588351 10.912961896278 24.614249319495  34.73031943894 10.898057406832 24.611289090862 34.742571333329 10.894529300827 
24.599080915784 34.794856775452 10.879516190996 24.594584684541 34.812280930187 10.874469522856 24.584315041355 34.853301099131 10.862620693023 
24.577880540884 34.877333375427 10.855636354276 24.570699923386 34.904736261941 10.847688348193 24.562702900347  34.93407836481  10.83914651683 
24.559097622994 34.947403126499 10.835270199442 24.550978925114 34.977384237394 10.826547686301 24.544287797681 35.001952576571 10.819396045597 
24.536954484309 35.028816975829 10.811574325037 24.527743455536 35.062597735549 10.801739913387 24.521595672096 35.085221182279 10.795155804656 
24.510479653894 35.126254206151 10.783217457339 24.505296363793 35.145463077454 10.777630818513 24.493164417969 35.190465421861 10.764543660423 
24.488562178984 35.207549485257 10.759575776297 24.475695921854 35.255083529404 10.745747101299  24.47141059923 35.270663291952   10.7412076653 
24.457785176312 35.319719210118 10.726900908073 24.453634880615 35.334197259755 10.722665378064 24.439261127025 35.383633043057 10.708182419153 
24.435050585712 35.397492119912 10.704103780885 24.419722124134 35.446939474913 10.689520617899 24.415096210432 35.461060968329 10.685330594776 
24.398972619867 35.509214133237 10.671007373869  24.39307481681 35.525620375873 10.666086167799 24.375987895422   35.5717664108 10.652193543185 
24.367081738348  35.59398867363 10.645434389367 24.350246616758 35.635000543935 10.632919605801 24.334753811414 35.669272770649 10.622316485138 
24.320883953583  35.69929663419 10.612997442123 24.300402461073 35.737989297893 10.600722407388 24.289914587732 35.758068236779 10.594366789782 
24.273037097745 35.787199432759 10.584976780829 24.258987452422 35.811621836793  10.57711473248 24.250307427167 35.825310249832 10.572626203584 
24.228121547088 35.860523623115 10.561094083056 24.200768747806 35.899859590291 10.547950355348 24.197733085426 35.904200833674 10.546498049588 
24.193533650369  35.90973029859 10.544614362672 24.166140984908 35.945721555562 10.532347494854 24.141715607873 35.974865121921 10.522186113104 
  24.1327959112 35.985312227513 10.518526876993  24.12204289308 35.996563231506 10.514469344286 24.095384263704 36.024450315396  10.50441162194 
 24.07600609119 36.043180034827 10.497506630542 24.056766983763 36.060994338312 10.490856889903 24.020718653205 36.092137656375 10.478986005212 
24.018916613102 36.093598512822 10.478417864899 24.003615732615 36.105170356068 10.473813015155  23.98240885246 36.121153803929 10.467445226784 
23.978812295657 36.123653092986 10.466420968143 23.949586119748   36.1434065576 10.458244159386 23.909293033898 36.168428192265 10.447553610319 
23.907204154876 36.169704532808 10.447004876779 23.904215362274 36.171353761067 10.446266353324 23.862041976866 36.194022408221 10.436004175364 
23.831490216527  36.20927191764 10.428878702179 23.814871880109 36.217358964332 10.425057593131 23.791561875497 36.227749831768  10.41994873148 
23.768072820415 36.238095402522 10.414833578728 23.750897776454 36.245069301906 10.411248992493 23.720658030151 36.256960344232 10.405039811712 
23.680011653014 36.271744822001 10.397009532733 23.670736282392 36.275014586899 10.395204441628 23.642399192142  36.28415477075 10.389913396163 
23.617491896554 36.292136236179  10.38527656437  23.60951503379 36.294495403838 10.383843446201 23.560339252506 36.308364952063   10.3751861385 
23.533279549724  36.31525624501 10.370617391276 23.500485987352 36.323128861766   10.3652066775 23.451767806364 36.333365073689  10.35755287186 
23.438474444697 36.335984288151 10.355510227231 23.400765559134 36.342265932806 10.350018327086  23.37516850388 36.346536644265 10.346288625625 
23.365846200739  36.34782390806 10.345000901914 23.310843922658 36.354776037498 10.337572540795 23.278935044832 36.357927575584 10.333495276932 
23.245733862305 36.360872795047   10.3293408404  23.19443924385 36.364052077552 10.323283469129 23.180518286515 36.364811071641 10.321666894572 
23.129940693027 36.366357398614 10.316112573268 23.115830526009 36.366802769731 10.314559344498 23.111995638399 36.366841723829 10.314158825544 
23.051832948226 36.366996078213 10.307995684165 23.030732465966 36.366602861923 10.305951946175 22.989670406482 36.365564948331 10.302046605571 
22.951084117516 36.363809171328 10.298582281169 22.929712392597 36.362725173807 10.296692875326 22.874818717577 36.358959151435 10.292098471806 
22.871048367281 36.358682318747 10.291787691233 22.856624301811  36.35738517163 10.290661456164 22.812775984211 36.353467455236 10.287231041895 
22.801816336732  36.35232155665 10.286417529907 22.754188516875 36.347065324812 10.282955025627 22.730573306391   36.3441442265 10.281321158817 
22.694342326641 36.339371504713 10.278891115008 22.660252507152 36.334439333044 10.276720962806 22.632898130587 36.330199221915  10.27505397429 
 22.59025030423 36.323061187132 10.272593883707 22.569043567911 36.319240866747 10.271441950196 22.520788035163 36.309967421887 10.268973604477 
22.502858396746 36.306191301922 10.268143525238 22.452520037629 36.294984229207 10.265972491047  22.43445216789 36.290529875786 10.265306975139 
  22.3859697004 36.278020029239 10.263667926301 22.363876346129 36.271664239378  10.26309354783 22.322104916355 36.259229440457 10.262117685553 
 22.29307072595 36.249542206055 10.261714392242 22.260959000238 36.238444203156 10.261369474691 22.224428239378 36.224559707497 10.261308747414 
22.203264613591 36.216278036486 10.261336214417 22.162013349731 36.198718459895  10.26176303131 22.150511082697 36.193601296261  10.26194023585 
 22.10935854937 36.173783402948  10.26297188687 22.105646407112 36.171914102957 10.263086447775 22.068915503608  36.15258670494  10.26443888354 
22.036434464544 36.134258495371 10.265960646611 22.017815136174  36.12346032922 10.266909820192 21.966703918349 36.091439994711 10.270141852369 
21.964316867267 36.089890702913 10.270306979356 21.949922826211 36.079993414491 10.271448871837 21.912381466899 36.054277958365 10.274401293283 
21.905660203596 36.049348823921 10.275015516802 21.866091140621 36.019950528648 10.278731559901 21.835337604564 35.995534084041 10.282032619133 
21.822355813941 35.985208936589 10.283430917893 21.808232415286 35.973310361183 10.285127443701 21.778058411666 35.948063146059 10.288706284499 
21.745641419529 35.919558354439 10.292914834333 21.733244537087 35.908718577557 10.294508197702 21.723082535811 35.899465610219 10.295911067153 
 21.68923647159 35.868753322387 10.300555588559 21.648173546876 35.830349381555 10.306491480274 21.645602815028 35.827969912026 10.306856563904 
21.643561480465 35.826049337935 10.307154659816 21.601938013483 35.787057558061 10.313188330433 21.565474172228 35.752718195236 10.318521737413 
21.558354946171 35.746066445019 10.319549157952 21.548998320845 35.737380033945 10.320884769506 21.514239612579 35.705477092625 10.325750004937 
21.486650265445 35.680392768442 10.329548973086 21.469922397804 35.665362528538 10.331805259461 21.448980571764 35.646783406531 10.334567401025 
21.425378540521 35.626038153801 10.337629332562 21.405677305139 35.608929952833 10.340130317974   21.3807967738 35.587718534359 10.343184919208 
21.351867642435 35.563387388991 10.346649174167  21.33673918526 35.550710816264   10.3484483256 21.323662791561  35.53987955992 10.349970294039 
21.292725996523 35.514905008958 10.353399695726 21.259110489162 35.488070188608 10.357046447419 
POLYGONS 1 501
500 0 1 2 3 4 5 6 7 8 9 10 11 12 13 14 15 16 17 18 19 20 21 22 23 24 25 26 27 28 29 30 31 32 33 34 35 36 37 38 39 40 41 42 43 44 45 46 47 48 49 50 51 52 53 54 55 56 57 58 59 60 61 62 63 64 65 66 67 68 69 70 71 72 73 74 75 76 77 78 79 80 81 82 83 84 85 86 87 88 89 90 91 92 93 94 95 96 97 98 99 100 101 102 103 104 105 106 107 108 109 110 111 112 113 114 115 116 117 118 119 120 121 122 123 124 125 126 127 128 129 130 131 132 133 134 135 136 137 138 139 140 141 142 143 144 145 146 147 148 149 150 151 152 153 154 155 156 157 158 159 160 161 162 163 164 165 166 167 168 169 170 171 172 173 174 175 176 177 178 179 180 181 182 183 184 185 186 187 188 189 190 191 192 193 194 195 196 197 198 199 200 201 202 203 204 205 206 207 208 209 210 211 212 213 214 215 216 217 218 219 220 221 222 223 224 225 226 227 228 229 230 231 232 233 234 235 236 237 238 239 240 241 242 243 244 245 246 247 248 249 250 251 252 253 254 255 256 257 258 259 260 261 262 263 264 265 266 267 268 269 270 271 272 273 274 275 276 277 278 279 280 281 282 283 284 285 286 287 288 289 290 291 292 293 294 295 296 297 298 299 300 301 302 303 304 305 306 307 308 309 310 311 312 313 314 315 316 317 318 319 320 321 322 323 324 325 326 327 328 329 330 331 332 333 334 335 336 337 338 339 340 341 342 343 344 345 346 347 348 349 350 351 352 353 354 355 356 357 358 359 360 361 362 363 364 365 366 367 368 369 370 371 372 373 374 375 376 377 378 379 380 381 382 383 384 385 386 387 388 389 390 391 392 393 394 395 396 397 398 399 400 401 402 403 404 405 406 407 408 409 410 411 412 413 414 415 416 417 418 419 420 421 422 423 424 425 426 427 428 429 430 431 432 433 434 435 436 437 438 439 440 441 442 443 444 445 446 447 448 449 450 451 452 453 454 455 456 457 458 459 460 461 462 463 464 465 466 467 468 469 470 471 472 473 474 475 476 477 478 479 480 481 482 483 484 485 486 487 488 489 490 491 492 493 494 495 496 497 498 499 

CELL_DATA 1
FIELD FieldData 6
ClosedSection 1 1 int
1 
SectionArea 1 1 double
        18.0985 
SectionLength 1 1 double
        15.4603 
SectionMinSize 1 1 double
        2.06979 
SectionMaxSize 1 1 double
        2.65071 
SectionShapeFactor 1 1 double
       0.780842 
