# vtk DataFile Version 4.2
vtk output
ASCII
DATASET POLYDATA
POINTS 402 double
39.329269961492 38.068927979443 27.331177966659 39.330474381461 38.073366991544 27.323855834155 39.339496132249 38.105990055433 27.270900275783 
39.340428064345 38.109283426777 27.265660714591  39.35023107401 38.143220774382  27.21267238907 39.351034041895 38.145962414019 27.208447160382 
39.360609862915 38.177778200356  27.16071028989 39.363378728968 38.186921160859  27.14707775829 39.370631635814 38.210314729282 27.113043517648 
39.377969209645 38.233838913726 27.079041336355 39.380624164114  38.24214990615 27.067343366417  39.38609163635 38.259108542877 27.043725071445 
39.390858198602 38.273866011077 27.023216326795 39.393319553306 38.281405820882 27.012869066802 39.401568028754 38.306056014002 26.980053350267 
39.409464192417 38.329357473358 26.949530919458 39.412816771679   38.3389987405 26.937331487831 39.420477232637 38.360842207697 26.910017911034 
39.424720962172 38.372945544009 26.894879161091 39.426737027787 38.378672903762 26.887755205949 39.437297037796 38.407931345199 26.852673776039 
39.445789986309 38.431474670157 26.824423002371  39.45048460053 38.444178002983 26.809743043812 39.460831829111 38.472266128747  26.77711874497 
39.464363445681 38.481862024351 26.765956228243 39.466002056333 38.486332098333 26.760723545687 39.478882305295 38.520667802953 26.722006700461 
39.486367051887 38.540682362386 26.699321417763 39.493813211448 38.560193207263 26.677960164717 39.506184337644  38.59289346155 26.641612253214 
39.508955803242 38.600078673251 26.633892844862   39.5201180576 38.629439695182  26.60153028432 39.524174094084  38.64011640828  26.58974723905 
 39.52508898797   38.6425725096 26.586945286151 39.539509133919 38.680562011824 26.544959443457 39.543157085229 38.690408829421 26.533625642697 
39.554795055861 38.721411833706 26.498706498928 39.560837860234 38.737968031826 26.479193734126 39.569338404382 38.760985257512 26.452566651909 
39.576837141703 38.781940892149 26.427115601626 39.582591302164   38.7978629942  26.40806253899 39.589460204715 38.817407882648 26.383696307122 
39.595065895942 38.833270217587 26.364076877928 39.599579033282  38.84627745601 26.347568596404 39.607464094855 38.868820350821 26.319276425904 
39.611180183446 38.879298443654 26.306382742083 39.613871988266 38.886744696948 26.297476109373 39.623614882166 38.914347143012 26.263276974444 
39.635791644971 38.947770600592 26.223772313729 39.637527144723  38.95264461212  26.21780943486 39.641046815993 38.962114005845 26.206968096311 
39.652592850555 38.992920278575 26.172179596964 39.658536543914 39.008181409077 26.156071449027 39.668859773624 39.035329277437 26.126160133377 
39.680951647178  39.06568025277 26.095488176199 39.686074683324 39.078854172953 26.081544068265 39.703929631561 39.122264387138  26.04049165771 
39.704424502448 39.123495373042 26.039269998631  39.70662547794 39.128659131577 26.034774269933 39.724002577554 39.169397677101 25.999370879379 
39.728872650737 39.180245966418 25.991163639192 39.744695110946 39.216225898466 25.962284698319 39.755224375268 39.239005133999 25.946575017367 
  39.7665819634 39.264133375957 25.927950870198 39.783095750156 39.298959341975  25.90602553869  39.78983274287 39.313510868182 25.896044538026 
39.812589095755 39.360483695589 25.868899206263 39.814458331132 39.364410557797 25.866463151636 39.823441116126 39.382433213666 25.857312819012 
 39.84061594923 39.416935376303 25.839686996484 39.844951836287 39.425290504057 25.836307552287  39.86877064729  39.47158143641 25.816559160024 
39.881255455064 39.494959514021 25.808877001103 39.898055978017 39.526634920783 25.797888163314 39.918077749949  39.56270207421 25.789860021218 
39.930425543209 39.584845894507 25.785208641155  39.95030098473 39.619561426049 25.780518139401 39.966006755555 39.646730309735 25.777606288753 
39.982669979794 39.674914646926  25.77644813925 40.004892508435 39.711728865798 25.777233723625 40.018379778015 39.733695103792  25.77884667814 
40.046710623938 39.778945440235 25.784920315575 40.057974877945 39.796757810561 25.787874683186  40.08045128878 39.831032302583 25.797590714037 
40.090320002763 39.846185318869 25.801542942164 40.097744762569  39.85720488824 25.805664187575 40.118220057188 39.887869985501 25.816196442057 
40.133632270708 39.910532792681 25.825388548307 40.144968244972   39.9271579531 25.832281402815 40.169209267784 39.961807575127 25.849739173577 
40.172700119087 39.966833661718 25.852143693274 40.174096276544 39.968809498231 25.853208848836 40.201658080396 40.007436307727 25.875377105036 
 40.21691289492 40.028407249613 25.888876589083  40.23165645635 40.048478234158 25.902517746032 40.259481732718 40.085594808516  25.93056209622 
40.262508269675  40.08967395378 25.933485886746 40.264147444528 40.091843635835 25.935188715001 40.294569063161 40.131675647687 25.968103682178 
40.316591522832 40.159976251698  25.99354076066 40.328767963864 40.175477318554 26.008047058009 40.351153318885 40.203457567158  26.03627418536 
40.366731564714 40.223164379102 26.055209543897  40.37272381531 40.230702309486 26.062620887048 40.410785051955 40.277196188938 26.113870155517 
40.411711417164 40.278334839358 26.115096271108 40.417740476741 40.285605740242 26.123497430412 40.446972924254 40.320893585282 26.164128103527 
 40.45133655722 40.326060520543 26.170496394629 40.479073459983 40.359158649928 26.210206770267  40.48784769642 40.369438704812 26.223341698562 
40.509379002808 40.394824390499 26.255093982447 40.522070285718 40.409530418018 26.274584849797 40.538401593654 40.428500159363 26.299527822342 
40.554243990135 40.446572203218 26.324717988485 40.566409466876 40.460481488541 26.343966298833 40.585007605689   40.4813500497 26.374584177579 
 40.59359893128 40.491002575115 26.388690632045 40.615250390522 40.514825778165  26.42575587301  40.62011069918 40.520166686022 26.434097092544 
40.645601628302 40.547558433721 26.479712250719 40.646507301831 40.548527552206 26.481345248055 40.651893523883 40.554157767366 26.491458816478 
40.672301339676  40.57546559148 26.529851739798  40.67563847452 40.578852090155 26.536424604724 40.697317557537 40.600744806254  26.57944662905 
40.704780791745 40.608035749686  26.59499825166 40.721146961262 40.623878084764 26.629541545287 40.732818662877 40.634686046672 26.655653646347 
  40.7430906015 40.644119200213  26.67887114957 40.759419433304 40.658243062226 26.718405662977 40.763283886707 40.661561931334 26.727833639801 
40.772311193537 40.668757013167 26.751538137363 40.782071697939 40.676497491843 26.777285409718 40.786397840742  40.67957625087   26.7897583258 
40.799782181626 40.689142063455 26.828224836664 40.814112286666 40.698114156482 26.873235829346 40.817368395293 40.700205961476 26.883303112494 
40.822483693662 40.702987117381 26.900640696477 40.833768223038 40.708685433293 26.940205042187 40.840014824944 40.710730568931  26.96544882928 
40.848575876238 40.713865695831 26.999044503589 40.858354588154 40.716000489079 27.041777133798 40.861448528107 40.716357725991 27.056256506429 
40.864166117502 40.716146291398 27.070557432749 40.872017932347 40.715665191616 27.111485343136 40.877035853956 40.714329623992 27.140739867095 
40.880931212952 40.712420115431  27.16607995666 40.887514897757 40.707642206875 27.213581115515 40.888629547715 40.706417138699 27.222877426397 
40.895002103088 40.697358516606  27.28221780532 40.895065709042 40.697225094507 27.282939701943  40.89557228931 40.695970407489  27.28926797032 
40.900022978022 40.684782551008 27.345362282203 40.900457706346 40.683545514878 27.351276092906 40.903380174463 40.669582513795 27.408050119791 
40.903937669404 40.666687543807 27.419577689912 40.905263377383 40.652062034792 27.470319985385 40.905683128527 40.647175964431 27.487155559926 
 40.90575782276 40.632598884693 27.531461950963 40.905806568801 40.625647945428 27.552655034534 40.905113241353 40.611587814917 27.591541974695 
40.904743312215 40.603141121528 27.615137750639 40.903564255355 40.589129705864 27.651435687507 40.902907806831 40.580455297972 27.674277138384 
40.901247067976 40.564846522338  27.71296718537 40.900440668659 40.557605716492 27.730734265028 40.897866158683 40.537551492666 27.778227189957 
40.897326170165 40.533699490119 27.787120941176 40.894453555694 40.514254937606  27.83127766902 40.893613170313 40.508720742351 27.843730670976 
40.893434940984 40.507572336387 27.846295496902 40.889270482501 40.482770439512 27.900102370316  40.88806440932  40.47559054355 27.915676372007 
40.884474058796 40.455985698461  27.95670747793 40.881877712891 40.441594646246 27.987023556064 40.879422224904 40.428880878539 28.012993031765 
 40.87507478739 40.405857184109 28.060520952111 40.874202573967 40.401492640364 28.069288956256 40.871411469898   40.3871624542 28.098442381134 
40.868704018853 40.373586807887 28.125742452665 40.867920749562 40.369556223994 28.133951205363 40.862896927407  40.34505577626 28.182528821867 
40.860633899894 40.333795607749 28.205085265624 40.856833752499 40.315809123472 28.240184295002 40.853262491137  40.29864424786 28.273958061136 
40.850422905952 40.285741619335  28.29856550867 40.845614981321 40.263739013084 28.340700906795 40.843538156643 40.254806010537 28.357180194234 
40.837388222324 40.228359790808 28.405959806687 40.836046205361 40.222884396699 28.415713454071 40.828574748028 40.192500403157 28.469715840252 
40.828044277325 40.190433952951 28.473276340112 40.823438470732 40.172558106197 28.503991180055  40.81955847951 40.157565394727 28.529666452946 
40.819110105666 40.155838960294 28.532615023379 40.811015262232 40.125461688403 28.583462838828 40.809315424043 40.119123706018 28.594016978052 
40.802465029463 40.093970270198 28.635378703461 40.798182696287 40.078398400241 28.660776452837  40.79371652632 40.062442515485 28.686407194486 
40.785517064092 40.033280134512 28.733067690905 40.783499137806 40.026179126621 28.744322044004 40.782704118036 40.023332555506  28.74890346612 
40.771265148888  39.98372451004 28.810756115242 40.770794786424 39.982076160666 28.813358805051 40.760116255153 39.945765913876 28.869096297117 
40.759880237711 39.944952866834 28.870359902358 40.750282105166 39.913023331747 28.918327396825 40.750142374995 39.912555314686 28.919035309111 
40.741912912546 39.885835173864  28.95818480685 40.741744118132 39.885285971839 28.958991253983 40.734975259056 39.863646492784 28.990172945129 
40.726378620534 39.836358158453 29.029188684286 40.725945990128 39.834978129652 29.031172450832 40.725480033442 39.833493162189 29.033304909534 
 40.71613421186 39.804284162669 29.074342136712 40.707554357355 39.777647782597 29.111477474277 40.705582833629 39.771478766604 29.120156397052 
40.702690706503 39.762494408912  29.13269120601   40.6947575575 39.738183942665  29.16606851535 40.690081364541 39.723957056266 29.185432615995 
40.684100689132 39.705534806951  29.21088146273 40.675278004806  39.67870404956 29.247381673315 40.674137829668  39.67520029225 29.252208251028 
40.668703002957  39.65880973823 29.274278657318 40.663742732857 39.643904170466 29.294259787701 40.662917030596 39.641456663348 29.297484285571 
40.652229954187 39.609465468851 29.340162517828 40.651432306771 39.607118664271 29.343224585746 40.639757471744 39.572394073865 29.389174096042 
40.639290945451 39.571030236882 29.390938640799 40.626622604373 39.533676002714 29.439817854622 40.626427343684 39.533109194065 29.440544293317 
40.618888823984 39.511057021482 29.469099950632 40.613475831518 39.495228093325 29.489587569301  40.61333247009 39.494811255571 29.490122985349 
40.600328362114 39.457510683539  29.53715228058 40.599689602777 39.455709744713 29.539368147946 40.586864915453 39.420112698024 29.582165647934 
40.585137477736 39.415439822933  29.58756289841  40.57283416056  39.38268478025 29.624416861263 40.569003869489 39.372796254248 29.634959574948 
40.557918587645 39.344553034997 29.664340430816 40.550559178749 39.326220746278 29.682586050297 40.542194525903 39.305639322827 29.702555619261 
40.529432418238 39.274792740692 29.731351322824 40.525682947718 39.265830375187 29.739509229943 40.515753427654 39.242445327624 29.760060087383 
 40.50831236981 39.224963593889 29.775331874086 40.505217457712 39.217775213595 29.781434579735 40.490083855535 39.183020716838 29.810083934463 
40.478461005657 39.156719893967 29.830908174419 40.471008983529 39.140046793967 29.843687860479 40.453540467736  39.10165557276 29.871557507111 
40.451025098321 39.096127726244 29.875569748508 40.449909569231 39.093720367492 29.877216035526 40.429992443779 39.051191957347 29.905242569518 
40.419520635782 39.029254607912 29.918703948389 40.408224080275 39.005833826352 29.932489199861 40.387433014939 38.963465696548 29.955638628785 
40.385772048283  38.96011572158 29.957383273835 40.381730364063 38.952096590414 29.961229345696  40.36255544356 38.914005692798 29.979614302387 
 40.35482197783 38.898850398195 29.986404723469 40.338861036598 38.867934783907 29.999325100813 40.322944110594 38.837463131643 30.011128816615 
40.314772639983 38.822017946855 30.016590639341 40.291602714822 38.778687866959 30.030678456047  40.29030704746  38.77629718113 30.031368781449 
40.285204254244 38.766968613376 30.033825958435 40.265260017168 38.730418572667 30.043699210697 40.260023058501 38.720901115385 30.046051074169 
40.239555758111 38.684226727978 30.053669166868 40.227177136335 38.662208327527 30.057787567832 40.213023818305 38.637376110639 30.061462977501 
40.192056973299 38.600889116549 30.066004671379  40.18531975679 38.589325428067 30.066980122448 40.161846417763  38.54941480689 30.069237211705 
40.156365290932 38.540066890974 30.069850480127  40.15468640581 38.537231846525 30.069953190908 40.126161764142 38.489737480977 30.069667984571 
40.116007421614  38.47301099784 30.069021594283 40.094479894979 38.438005906594 30.066278245701 40.076231923418 38.408657355633 30.062977050019 
40.060717218265 38.383983505437 30.059330293021 40.035429959835 38.344177042745 30.052153302128 40.025273601798 38.328354887362 30.048771412257 
39.992371265723 38.277778582953 30.035763677333 39.990645920379 38.275143584458 30.035029914444 39.986153802749 38.268390229827 30.032796597483 
39.957655007034 38.225391815695 30.019091926218 39.943377715826 38.204237305817 30.011060534667  39.92592953866 38.178352948892 30.001340597521 
39.900653254413 38.141513771576 29.985276297646 39.895192653025 38.133524833793 29.981897223328 39.890788377081 38.127213092572 29.978774677225 
 39.86475283789  38.08967505512 29.960999080271 39.836259054845 38.049354004853 29.939250860532 39.833878943548 38.045983495469 29.937441613313 
39.831871556448  38.04318851882 29.935771901833     39.80351166 38.003391115341 29.913118738088 39.775621729038 37.964790916562 29.889220499932 
39.775407022722 37.964492201984 29.889041215131 39.775149430878 37.964138404228 29.888812310586    39.747763227 37.926541091411  29.86442436439 
39.731087131019 37.903951088437 29.848658192743 39.720617324069  37.88973712614 29.838853718161 39.694188099036 37.854457943871 29.812291218893 
39.693245897539 37.853199781132 29.811345653656 39.692917855699 37.852771571126 29.810986790263 39.666213665213 37.817841747823  29.78198893575 
39.656656958564 37.805638020745 29.770717193677 39.639478469489 37.783745855827 29.750321977869 39.616626300941 37.755334321864 29.721047527191 
39.612299647001 37.749963216552  29.71548046815 39.605969494063 37.742292794692 29.706769479399 39.584180559589 37.715959390192 29.676578004231 
39.573235839863 37.703048877841 29.660457525304 39.553446668027 37.679903048082 29.630714256739 39.542040416101 37.666934105505 29.612449337642 
39.526462743972 37.649378821919 29.587032818557 39.514666818082 37.636455655798 29.566670707341 39.503933152517 37.624762148445 29.547943705575 
39.486213146527 37.606026854923 29.515311964991 39.479334394993 37.598799467433 29.502507516091 39.473382683842 37.592764196329 29.490771447496 
39.453748358657 37.572928003324 29.451832502396   39.4356456192 37.555210536525 29.414209005043 39.427793505234 37.547608502958 29.397639669693 
39.420097561434 37.540496659501 29.380378257709 39.403645915729 37.525399529924 29.343159379338 39.386646841116 37.510650149462 29.302140082341 
39.381241167174 37.506037074236 29.288863364977  39.37690959645 37.502601029401 29.277439907519  39.36065291567  37.48995242218 29.233822196755 
39.342328770696 37.477089881494 29.180454243092 39.341929521899  37.47682196115  29.17925429553 39.341399719252 37.476519829712 29.177501039922 
39.325630822319 37.467949320846 29.124045715595 39.315973963372 37.463761156775 29.088113976528 39.311088192448 37.461752158693 29.069603383882 
39.304010400509 37.459599469672 29.040504601567 39.298398360676 37.458098477086 29.016811439844 39.294836551134 37.457593724657 29.000424239065 
39.286844738028 37.456537305694 28.963426042327  39.27746192013 37.456383937632 28.916712515407 39.275579364097 37.456469551262 28.906989226655 
39.274220066821  37.45677973347 28.899220042197 39.265392446251 37.458773522951 28.848827110942 39.258338246593 37.461979932572 28.803696272111 
39.254857574064 37.463285664501 28.782260775642 39.247201709248 37.469072223633 28.726329056038 39.245582410143 37.470130358365 28.714998513268 
39.238714374863 37.478767568456 28.654436924485 39.238075061365 37.479466620108 28.649115802842 39.232183520573 37.490473427946 28.586322677084 
39.232085060211 37.490626660575 28.585365833651 39.230775113646 37.493851581613 28.569060652126 39.227086370534 37.503042410591 28.522815742203 
39.226949280519 37.503684846416 28.520190365268 39.223362187731  37.51686112778 28.462445613229 39.223173775469 37.518706560167 28.455936732123 
39.221239064741 37.532625728802  28.40426113351 39.221159612966 37.536013248983 28.393652714677  39.22048159847 37.549363663553 28.350009690338 
39.220669105059 37.554470699944 28.335561414274 39.220977751669 37.567013102357 28.299314308928 39.221505646894 37.573187604106 28.283360455418 
39.222640664701 37.586554838777  28.24878245872 39.223145068317 37.590857647893 28.238351198288 39.224793901924 37.603563507437 28.208349789754 
39.225873300754 37.612028172477 28.188266984937 39.226385087756 37.615886140479  28.17921346169 39.229770793231 37.636896034571 28.132919038204 
39.232874946111 37.655801610381 28.091550768987 39.234984104044 37.667183630506 28.067853463338 39.237134892887 37.678057590614 28.045896609831 
39.241139158783 37.699391453397 28.001735895084 39.245538926915 37.720708864515 27.959613300431 39.247320391545 37.729583250771 27.941825628061 
 39.25354684555 37.758634867807 27.885578881275 39.253677955101 37.759244267259 27.884401542444  39.25371873805 37.759424454599 27.884063565179 
39.260171353929 37.788487918052  27.82891823287 39.262179232365 37.797209896928 27.812728252112 39.266865230068 37.817870397951 27.774024511958 
39.271085632584 37.835858871082 27.741032483286  39.27377190245 37.847451814482 27.719601172265 39.280483650953 37.875606363595 27.668497917443 
39.280905644449 37.877394487759 27.665230795767 39.282195565938 37.882735030933 27.655621617588 39.288256248543 37.907757104626 27.610685196103 
39.290299290492 37.916029867525 27.596025812306  39.29579917043 37.938525457096 27.555883785849 39.300183538954 37.956138303475 27.524848182994 
39.303554390392  37.96970919832 27.500897931927 39.310294901117 37.996385632745 27.454393873522 39.311646692651 38.001706988389  27.44515359614 
39.317555807396 38.024602368845 27.405864308478 39.320139244243 38.034582642581  27.38877605545 39.320656665155 38.036547311526 27.385456680171 

POLYGONS 1 403
402 0 1 2 3 4 5 6 7 8 9 10 11 12 13 14 15 16 17 18 19 20 21 22 23 24 25 26 27 28 29 30 31 32 33 34 35 36 37 38 39 40 41 42 43 44 45 46 47 48 49 50 51 52 53 54 55 56 57 58 59 60 61 62 63 64 65 66 67 68 69 70 71 72 73 74 75 76 77 78 79 80 81 82 83 84 85 86 87 88 89 90 91 92 93 94 95 96 97 98 99 100 101 102 103 104 105 106 107 108 109 110 111 112 113 114 115 116 117 118 119 120 121 122 123 124 125 126 127 128 129 130 131 132 133 134 135 136 137 138 139 140 141 142 143 144 145 146 147 148 149 150 151 152 153 154 155 156 157 158 159 160 161 162 163 164 165 166 167 168 169 170 171 172 173 174 175 176 177 178 179 180 181 182 183 184 185 186 187 188 189 190 191 192 193 194 195 196 197 198 199 200 201 202 203 204 205 206 207 208 209 210 211 212 213 214 215 216 217 218 219 220 221 222 223 224 225 226 227 228 229 230 231 232 233 234 235 236 237 238 239 240 241 242 243 244 245 246 247 248 249 250 251 252 253 254 255 256 257 258 259 260 261 262 263 264 265 266 267 268 269 270 271 272 273 274 275 276 277 278 279 280 281 282 283 284 285 286 287 288 289 290 291 292 293 294 295 296 297 298 299 300 301 302 303 304 305 306 307 308 309 310 311 312 313 314 315 316 317 318 319 320 321 322 323 324 325 326 327 328 329 330 331 332 333 334 335 336 337 338 339 340 341 342 343 344 345 346 347 348 349 350 351 352 353 354 355 356 357 358 359 360 361 362 363 364 365 366 367 368 369 370 371 372 373 374 375 376 377 378 379 380 381 382 383 384 385 386 387 388 389 390 391 392 393 394 395 396 397 398 399 400 401 

CELL_DATA 1
FIELD FieldData 6
ClosedSection 1 1 int
1 
SectionArea 1 1 double
        10.7427 
SectionLength 1 1 double
        12.1703 
SectionMinSize 1 1 double
        1.36228 
SectionMaxSize 1 1 double
        2.37466 
SectionShapeFactor 1 1 double
       0.573674 
