# vtk DataFile Version 4.2
vtk output
ASCII
DATASET POLYDATA
POINTS 434 double
35.210847143689 29.642522571502 24.647048910503 35.197403947095 29.643191421687  24.65139681594 35.195649056704 29.643296078856 24.651960309763 
35.142166789973 29.644514368412 24.669597889057 35.137518096444  29.64465698433 24.671122299939 35.084745772562 29.644533306755 24.688838136372 
35.081268407256 29.644549372694 24.689999793255 35.035146483435 29.643504411299 24.705703815165  35.02472768878 29.643280566052 24.709248426844 
35.023944042708 29.643242495921 24.709520036693 34.967800632511 29.640869310747  24.72889572642 34.959560684045 29.640295185311 24.731792628937 
34.910147506616 29.637257815739 24.749069170197 34.892573439507 29.635643825643 24.755339425205 34.852447529563 29.632591282716 24.769506904931 
34.824413153402 29.629628106346 24.779600838797 34.795658263275 29.627045390433 24.789846609275 34.757485866222 29.622696086483 24.803664910944 
34.739720608098  29.62088824921 24.810044918205 34.692632134959 29.615029139348 24.827207192862 34.684553527727 29.614122545395 24.830128358158 
34.634546930471 29.607353723202 24.848482991953 34.630073220164 29.606756949027 24.850122972614 34.629352808254  29.60664223847  24.85039144754 
34.576271831645 29.598996233709 24.869983144882 34.566810928366   29.5973752663 24.873535909176 34.523373849629 29.590595168101 24.889691419338 
34.504128193849 29.587045413797 24.896978014935 34.471576806834 29.581556518164 24.909180940986  34.44005326654 29.575264612506 24.921228588959 
34.420814676404 29.571717442605  24.92851220756 34.371282951492    29.560974599 24.947644048951 34.370363966661 29.560788650512 24.947995860911 
34.368426513198 29.560332352377  24.94875271358 34.319817203679 29.548793994644 24.967762846118 34.294989011093 29.541948624911 24.977696949391 
34.267444045097 29.534792478053 24.988614807413  34.21880735613 29.520372241105 25.008313146463 34.214606432361 29.519102305464 25.010020313197 
34.212189519837 29.518262668768 25.011028179517 34.163450012398 29.502218825409 25.031143533481 34.129263980387 29.489948459992 25.045492166726 
 34.11504493943  29.48500754825 25.051421872923 34.102623249906 29.480467802972 25.056654671943 34.066234730668  29.46624528979 25.072201437247 
34.034814060939 29.453223411952 25.085800328494 34.012928973828 29.443419253792 25.095445198781 33.967704602736 29.422248765471 25.115590394831 
33.956167962707  29.41647130614  25.12081819965 33.896292102067 29.385245440207 25.148243111252 33.895300071524 29.384685898948 25.148707430726 
33.893909764863 29.383841345069 25.149372387687  33.84328353598 29.354102555232 25.173346890408 33.810809822421 29.333284194913 25.189135722611 
 33.80350182385 29.328666452131  25.19267304098 33.797755328566 29.324802928055 25.195509310506 33.765246547466 29.302059282611 25.211763532569 
33.742955441932 29.285488390009 25.223138862714 33.727724360359 29.273625337945  25.23103875453 33.691584475203 29.244463686761 25.250022159339 
33.689370486347  29.24259699324 25.251204011395  33.68262559988 29.236641536416 25.254867795254 33.651553234189 29.209322106955 25.271718750522 
33.641579289049 29.200180309638 25.277215524151 33.614131283257 29.173677594246 25.292659336987 33.592650427284  29.15189254897 25.304991673268 
33.577196301348 29.135451212911 25.314045056885 33.545126711401 29.099445093428 25.333276996407 33.540611910339 29.094154779766 25.336036643517 
33.524645835604 29.074403187023 25.346041572112 33.504563872447 29.049605351317 25.358614943762 33.499039861109 29.042416884053 25.362160072865 
33.469028333573  29.00177589075 25.381794322776  33.45430143405 28.980552038197 25.391730835418 33.434044876858 28.950273823122 25.405654012996 
 33.41070584421 28.912826656069 25.422299438357 33.400299253259 28.895463487532 25.429878338507 33.370337063202 28.841386550564 25.452661838741 
33.368862200884 28.838709005258  25.45378702525 33.368343980288 28.837690589954 25.454200667064 33.340885035784  28.77985827194 25.477030047464 
33.329745570189  28.75278594888 25.487142248594 33.315661168628 28.717278486457 25.500228940914 33.298152192055 28.664223866442 25.518597855603 
 33.29410336454 28.652259859449 25.522773791211 33.288734999511 28.634357897288 25.528791075972 33.276475140201 28.591842021097 25.542917598221 
33.263234361339 28.540604131854 25.559427963024 33.260522317204 28.527827046268 25.563347452497 33.249276953854  28.47427625906 25.579734018388 
33.246040233255 28.455503259158 25.585242114936 33.237691177223 28.408599608627 25.599091777938 33.234778856109 28.386864602297 25.605189061575 
33.228903734806 28.345312101936 25.616948741457 33.226578578857 28.322491971541 25.623104913761 33.222017468545 28.281903546168 25.634197045609 
33.220183216508 28.258626927079 25.640296249156 33.216742306854 28.218422212331 25.650922534521 33.215386633782 28.194640202651 25.656980422325 
33.212974802315 28.154661278816 25.667208610137 33.212078478384 28.130230360392 25.673265442934 33.210615460459 28.090558636957 25.683103252209 
33.210232851424 28.065297908648  25.68918343331 33.209734296076 28.025998735151 25.698610221559  33.20991230011 28.000166272762 25.704637225004 
33.210346168047 27.960568483845 25.713821870647 33.211070578086 27.935166627596  25.71956428589 33.212462411034 27.894076498748 25.728779494742 
33.213630714612 27.870587125254 25.733922518199 33.216157186574 27.826110611892 25.743555353819 33.217567601205 27.806838937712 25.747623456453 
33.221744333191 27.756158751457  25.75816491929 33.222960880745 27.744013272417 25.760618917907 33.229792456932 27.684209516587 25.772420308564 
 33.23004241771 27.682317556381 25.772782318867  33.23130775525 27.673908142269 25.774339671414  33.23904009781 27.621768829749 25.784033268208 
33.241139562324 27.609556551663 25.786207095587 33.249986980772 27.562233282536 25.794392214325 33.256282029443 27.532827564853 25.799211017085 
33.263057431743 27.503594050225 25.803828254265  33.27575550948 27.454111686616 25.811231548067 33.278129507497   27.4455587501 25.812451148825 
 33.28454281254 27.424272000993 25.815317321165 33.295374600748 27.388049997095  25.82022168909 33.300198836033 27.373060846237 25.822136595484 
33.314770621185 27.330828510364 25.827203658159 33.329962268328 27.289391557957 25.831875564715 33.336220233638 27.273505087578 25.833521382115 
 33.34927182271 27.242095367422 25.836547908191 33.359951390238 27.216164911404 25.839078391786  33.36555366231 27.203183688349 25.840259429136 
 33.38619298457 27.158931816513 25.843768795258 33.407242341266 27.115843635447 25.846866548363 33.414843485977 27.101475177586 25.847704522784 
33.428235621849 27.077243519316 25.848925614638 33.446013942397 27.044639019561 25.850649486832 33.457071128504 27.025018268506 25.851566714389 
33.479356391383 26.988334007446 25.852741356522 33.510627797828  26.93819491542 25.854074520004 33.514392078054 26.932096862771 25.854249744992 
33.517416417801 26.927454537638  25.85432996228 33.552145297664 26.877807730225 25.854388357776 33.586715108574 26.832121819104 25.853566796413 
33.591708870354 26.825494584674 25.853454645625 33.598256769982 26.817396096866 25.853168281714 33.633505827235 26.775720252585 25.851174215713 
33.657964727952 26.748718419271 25.849338981068 33.675900714049 26.728751091619 25.848032432751 33.703729964772 26.699858587887 25.845513103038 
 33.71861163334 26.684811709026  25.84407085284   33.7279908616 26.675969953639 25.843010695589 33.761742187003 26.644008358864 25.839229718051 
33.797067482538 26.612670967938 25.834774147579 33.803951543366 26.606469417926 25.833928161194 33.815130482851 26.597085941923  25.83239246955 
33.845114738374 26.572159863668 25.828216316129  33.86588606246 26.555774020449 25.825115629838 33.885285875786 26.540257641762 25.822269742905 
33.906791826049 26.523783150902 25.818943733155 33.925575212712  26.50962356119  25.81598475471 33.947479028599 26.493981092009 25.812329358419 
33.967110883542 26.479633815812 25.809130237821 33.982279883366 26.469118197293 25.806524029751 34.010907438665  26.44964301017 25.801518233192 
34.050071576453 26.424638690999 25.794283868518 34.056380526058 26.420478070817 25.793149745995  34.06110864409 26.417572090721 25.792249821588 
34.102836146876 26.392193473111 25.784244535095 34.142894195961 26.369472801716 25.776172500602 34.150086399707 26.365396836784 25.774722408075 
34.159607491667 26.360344385937 25.772721866656 34.197805494523 26.339216378762 25.764897963874 34.226315760344 26.324628452177 25.758779937475 
34.244944563099  26.31484533903 25.754841579709 34.269855067461 26.302718524724 25.749350127965 34.291044514097 26.291917407389 25.744793430734 
34.306239378675 26.284593964288 25.741426411609 34.336977002914 26.269400094668 25.734704656574 34.371805262444 26.252545946109  25.72700311717 
34.384163667387 26.246633002923 25.724254397325 34.432288611485 26.224358872704 25.713373520835 34.433231941759   26.2239098936  25.71316315153 
34.433456405629 26.223806365708 25.713112315556 34.483882055229 26.201112251637 25.701559312259 34.495609761644 26.196079460429 25.698814589653 
34.535017618347  26.17950382741 25.689512569808 34.558584242415 26.170089774771  25.68383233817 34.585696305883 26.159406470327 25.677262911023 
34.622300135169 26.145797442037 25.668201670338  34.63586980745 26.140774604673 25.664837265757 34.682952307282 26.124373233664 25.652922022108 
 34.68581922773  26.12333972332 25.652204687327 34.686645624733 26.123061013792 25.651993389293 34.735855696591 26.106065022577 25.639505192622 
 34.75049204427 26.101320838002 25.635717634396  34.78683527331 26.089230703361 25.626385851421 34.814057898946 26.080606888051 25.619294111081 
34.839335206836 26.072498119414 25.612732990234 34.877595781925 26.060715029672 25.602686260754 34.893397665441 26.055880258812 25.598529416064 
34.941030751625 26.041909034924 25.585857050014 34.948846205142  26.03970382383  25.58375728648  35.00450296751 26.024653604512 25.568650011197 
 35.00521673377 26.024474210599 25.568453060655 35.011192802946 26.023066874201 25.566781772807   35.0625689628 26.010645498957 25.552489735641 
35.068587862888 26.009284693581 25.550793129301 35.120446292014 25.998581330324 25.535934660016 35.134411326387   25.9959834464 25.531866380333 
35.180058613338 25.988363655468 25.518363028035 35.205058682064 25.984810608668 25.510821402005 35.241705479012 25.979912706043 25.499693239545 
35.284765174982 25.975664532665 25.486262698138 35.307436588184 25.973422947388  25.47919251584 35.335604203168 25.972522242522 25.469964337076 
35.367847918491 25.970567404707 25.459618424831 35.407111298552 25.970240965324 25.446536180849 35.422709253101 25.969819098014 25.441407911932 
35.439595855071  25.96994422263 25.435718868988 35.477568117873 25.969449712051 25.423108945251 35.503295487788  25.97027608872 25.414291680904 
35.536335192068 25.970802843852 25.403094277638 35.567464252181   25.9730343606 25.392135551567   35.5963259645 25.974668483742 25.382077487577 
35.648920265717 25.979771679224 25.363248038349  35.65260468137 25.980068967058 25.361943155722 35.655235802835 25.980355072271 25.360993920518 
35.708437549353 25.985280967234 25.342002661073 35.761878184397 25.992502574566 25.322390420658 35.773801400889 25.993799191805 25.318088833305 
35.782055894603 25.995045246885 25.315028735433 35.847056492288 26.005339790144 25.290818115176 35.867232537487 26.008769998391 25.283247866184 
 35.91416997171 26.017293385912 25.265508453522 35.946309022658 26.023160646533 25.253354571698 35.978088050315  26.02950453606 25.241209048414 
36.020920869576 26.037800778219  25.22489882157 36.039917814444 26.041901380632 25.217565790484 36.092585576983 26.052731356982 25.197362372772 
36.100578975818 26.054611465182  25.19424038509 36.145517476644 26.064565839285 25.176833746898 36.160057788866 26.067707421865 25.171220325438 
36.162677918673 26.068233492471 25.170218233297  36.21863725024 26.081050400736 25.148443480841 36.232284871907 26.083945249719 25.143187381017 
 36.27617544448 26.094512556851 25.125987537313 36.302332999101 26.100325232974 25.115851221009 36.332751693671 26.107931800227 25.103864101726 
36.373421475888 26.117408872929 25.088000590776 36.388537198116 26.121344979332 25.082007113873 36.438121144728  26.13350702647 25.062523376665 
36.443716466283 26.134844591166 25.060332941361  36.44551692959 26.135249620788 25.059634080996 36.498690579552 26.148753342317 25.038631125038 
36.518167797226 26.153483555516 25.030988780752 36.553323866609 26.163090754154 25.016942535638 36.590427127249 26.172934953757 25.002187845168 
36.607451584694 26.178013300046 24.995285518501  36.65976484194 26.193379579565 24.974132066864 36.660909839735 26.193707970618  24.97367094403 
36.661277307622 26.193812201909 24.973523227767 36.713650564275  26.21067938406 24.951996023611 36.729444373994 26.215775350581  24.94550199803 
 36.76559562366 26.228896060009 24.930294361573  36.79371578104 26.239141965682 24.918455716612 36.817016708376 26.248641450646   24.9084081134 
36.854435181385 26.264003573396 24.892247642541 36.868034744214 26.270222950308  24.88622432224 36.912303433846 26.290698686257 24.866563121764 
36.918528666999 26.293896632961 24.863723226553 36.967601025362 26.319518191863 24.841239609684 36.968365583028 26.319961706555 24.840878866221 
36.978036955176 26.325658447931 24.836295226555 37.017481970635 26.348661795129 24.817655127735 37.020709535277 26.350549282508  24.81612867531 
37.065940756557 26.380372767251 24.793942358741 37.071393300403 26.383978694177 24.791265302533 37.113882357803  26.41567189162 24.769557481915 
37.119500561377 26.419872456393 24.766684795731 37.161152014206  26.45510291049 24.744424248371 37.164740301632 26.458111577701 24.742512726232 
37.198891629854 26.491204635013 24.723269467723 37.206699040999 26.498663973516 24.718895232106 37.207429350427   26.4994780744 24.718458649212 
37.245631748266 26.540979494298 24.695876486911 37.252836482759 26.550385710394 24.691245514387 37.280758503979 26.585263949185 24.673669388524 
37.297491012637 26.611172466709 24.661956890217 37.311933686001 26.632140801988 24.652175841395 37.334637524219 26.674157969377 24.634666515596 
37.339041039776 26.681718621759 24.631409227239 37.341213822839 26.686568918448 24.629538186816 37.364619321908 26.733375833142 24.610665135313 
37.380924698418 26.781559448782 24.593847317584 37.383353307344 26.787652701794 24.591597670695 37.384684307116 26.794260636266 24.589594618994 
37.397716969059 26.842785074412 24.573793349899 37.404191026112 26.897803280806 24.558660137665 37.404431665899 26.899039806448 24.558288136028 
37.404565320241 26.901057585051 24.557767911332 37.410540970972 26.954724783288 24.543120065884 37.410527875776 26.984029462404 24.536219667108 
37.412347490401 27.010224840425 24.529437649417 37.410683965602 27.059826480797 24.518308010445 37.410804495215 27.062570881767 24.517620977278 
37.410638069051 27.067345557451 24.516551742964 37.411501719181 27.109260849803 24.506386181211 37.411663538695  27.14781281134 24.497248308873 
37.411959077299 27.158730567441 24.494576809997 37.414756837062 27.212102873019 24.481063520584 37.415023277783 27.217753617115 24.479642790702 
37.423013179946 27.276776429176 24.463057973708 37.423744071291 27.283045368046 24.461335923292 37.432991653308 27.342050137273 24.444333844941 
37.433952847107 27.348675332401 24.442450667103 37.443018573987 27.408018150915 24.425429886283 37.443812079092 27.413484236428 24.423876019639 
37.451653875171 27.475511266354 24.406632984765 37.451821956658 27.476807600844 24.406271208912 37.453012441323 27.489969986466 24.402770886922 
37.458377499817 27.539279886734 24.389354351448 37.458625877755 27.543647315697 24.388242050875   37.4622831457 27.601311378873 24.373429469734 
37.462377095916 27.612018591142 24.370875141877 37.462420965271 27.662641060119 24.358932739798 37.461453823121 27.681231129811 24.354876674056 
37.458708677209 27.723158144884 24.345917841676 37.455426108108 27.751372961613 24.340370004332 37.451185409744 27.782651682404 24.334421365861 
37.443832860371 27.823197928761 24.327332046839 37.440399082677  27.84108055463 24.324269364764  37.42722883132 27.896868926884  24.31553849453 
37.426824278009 27.898538688764 24.315280650578 37.425415945925 27.903386391513  24.31461043555  37.41208689834 27.955459521126 24.306808173924 
 37.40685842469 27.972539370868 24.304536136572 37.394809224029 28.011399937295 24.299418085783 37.380451462358 28.051233886641 24.294844402332 
37.375018246849 28.066149594497 24.293150900938 37.362974306707 28.095395206086 24.290296569023 37.353840988835 28.120241086561 24.287503406756 
37.348796804352 28.132579367974  24.28628681614 37.331825138617 28.174126328461 24.282185564362 37.313585948294 28.215348665692 24.278585612621 
37.308187010659 28.227579674687 24.277513193464 37.298804617458 28.247550370151 24.275952203314 37.284686636381 28.280781478561  24.27285392286 
37.276133517312 28.300172735681 24.271151528323 37.261169333353 28.334105816996 24.268171454271 37.239834172646 28.379441759233 24.264639869701 
37.237495128903 28.385019563215 24.264109556657 37.235470543141 28.389492081949 24.263734280748 37.215571173244 28.434672343818 24.259758171009 
37.192797633479 28.483514869121  24.25588243718  37.19233059027 28.484528379151 24.255800163268 37.191534892244 28.486186277109 24.255676207232 
37.168919593004 28.536182344925 24.251475640497 37.154878208508 28.565500112314 24.249273752594 37.141275333717 28.593425173427 24.247253048102 
37.128305253743 28.617281761363 24.245978878124   37.1094135239 28.654394254109 24.243565989878 37.091288679546 28.686390334863 24.242101611555 
37.073761995444 28.717699912129 24.240598513645 37.056585002226 28.745602935251  24.23978087101 37.028552924738  28.78921254091 24.238900525136 
37.018989062662 28.802966423227 24.238865164031 36.996098038977 28.834126460453 24.239195164448 36.978795084434 28.858243243407 24.239311854256 
  36.9703529972 28.869105416198 24.239581875714 36.936967484458  28.91031680861 24.241060807422  36.90414855183  28.94801961537   24.2431765445 
   36.893548816 28.959778766395 24.243958357377 36.873360137375 28.980999422597 24.245724587683 36.850671237862 29.005272163627 24.247609635218 
36.835468909756 29.020527319642 24.249110280372 36.806974748449 29.048800922831 24.251998281262 36.786493105818  29.06768165958 24.254414032088 
36.760338727985 29.092080255096 24.257430884122 36.734374020392 29.114833067785 24.260771948416 36.713147828415 29.133363271242  24.26351982856 
 36.68302179856 29.158169242877 24.267771797387 36.664398608815 29.173230723377 24.270464581582 36.632108963006 29.198273434219 24.275385907744 
36.613829443359 29.212154697269  24.27824159418 36.580701871553  29.23658710237 24.283587552689 36.560626477854 29.250935021906 24.286935174147 
36.529174475806 29.272761765771 24.292333511431 36.504665395107 29.289075326161 24.296703941797 36.477794439969  29.30643776913 24.301618818269 
36.445760593765 29.326076491061 24.307727704344 36.426357374849  29.33765517057 24.311502535917 36.383635334636 29.361633806156 24.320171007272 
36.374631723793 29.366573074294 24.322024782576 36.338149659537  29.38524067319 24.329853309882 36.322273789305 29.393418693197 24.333247212743 
36.317948884112 29.395482835349 24.334210354383 36.268896939781 29.418504523517 24.345225775807 36.249353702908 29.426938299557 24.349788538744 
36.213973777756  29.44203020031 24.358090191396 36.178827849186 29.455669054941 24.366655787543 36.157276305725 29.463965987924 24.371923879428 
36.106556346568 29.481593371574 24.384769347192 36.098760610408  29.48429822264 24.386744776938 36.066525594688 29.494343703312 24.395181450945 
36.038907576801 29.503018605342 24.402393670295 36.031779576885 29.505007138016    24.404314087  35.97806348452  29.52026452803 24.418722131157 
35.952869693758 29.526616966113 24.425669088911 35.916304773927   29.5362685695 24.435649740098 35.868077045593 29.547732675389 24.449112129821 
35.854078477751 29.551258325543 24.452973047393 35.829115924565 29.556896738079 24.460010744816 35.794091770593 29.564778317354  24.46989206107 
35.772541598525 29.568891134214 24.476145557507 35.737784730444 29.576155808288 24.486082648243 35.697027893766 29.583831204246 24.497933859705 
35.684879545214 29.585982136664 24.501498586382 35.667911644718 29.588844342676  24.50651099981 35.632790885163 29.595172434043 24.516790727356 
35.614187197093 29.598461023574  24.52225091181 35.579460745592 29.603753736519  24.53264244317 35.536783587774  29.61047010582 24.545363218609 
35.524887675893 29.612042822649 24.548979580426 35.494968445667 29.616105515607 24.558049785034 35.470110696509 29.619598443131 24.565557877866 
35.461202104912 29.620883474322 24.568240821076 35.415123591489 29.626284982997 24.582411372458 35.389362967724 29.629422208932 24.590305875229 
35.360305071107  29.63207841129 24.599418801279 35.321305524192 29.635874206833  24.61159516936 35.305732680468 29.636852337961 24.616583955116 
35.256927327124 29.640349142855 24.632117197088  35.25152669162 29.640563761916 24.633876656623 
POLYGONS 1 435
434 0 1 2 3 4 5 6 7 8 9 10 11 12 13 14 15 16 17 18 19 20 21 22 23 24 25 26 27 28 29 30 31 32 33 34 35 36 37 38 39 40 41 42 43 44 45 46 47 48 49 50 51 52 53 54 55 56 57 58 59 60 61 62 63 64 65 66 67 68 69 70 71 72 73 74 75 76 77 78 79 80 81 82 83 84 85 86 87 88 89 90 91 92 93 94 95 96 97 98 99 100 101 102 103 104 105 106 107 108 109 110 111 112 113 114 115 116 117 118 119 120 121 122 123 124 125 126 127 128 129 130 131 132 133 134 135 136 137 138 139 140 141 142 143 144 145 146 147 148 149 150 151 152 153 154 155 156 157 158 159 160 161 162 163 164 165 166 167 168 169 170 171 172 173 174 175 176 177 178 179 180 181 182 183 184 185 186 187 188 189 190 191 192 193 194 195 196 197 198 199 200 201 202 203 204 205 206 207 208 209 210 211 212 213 214 215 216 217 218 219 220 221 222 223 224 225 226 227 228 229 230 231 232 233 234 235 236 237 238 239 240 241 242 243 244 245 246 247 248 249 250 251 252 253 254 255 256 257 258 259 260 261 262 263 264 265 266 267 268 269 270 271 272 273 274 275 276 277 278 279 280 281 282 283 284 285 286 287 288 289 290 291 292 293 294 295 296 297 298 299 300 301 302 303 304 305 306 307 308 309 310 311 312 313 314 315 316 317 318 319 320 321 322 323 324 325 326 327 328 329 330 331 332 333 334 335 336 337 338 339 340 341 342 343 344 345 346 347 348 349 350 351 352 353 354 355 356 357 358 359 360 361 362 363 364 365 366 367 368 369 370 371 372 373 374 375 376 377 378 379 380 381 382 383 384 385 386 387 388 389 390 391 392 393 394 395 396 397 398 399 400 401 402 403 404 405 406 407 408 409 410 411 412 413 414 415 416 417 418 419 420 421 422 423 424 425 426 427 428 429 430 431 432 433 

CELL_DATA 1
FIELD FieldData 6
ClosedSection 1 1 int
1 
SectionArea 1 1 double
        13.6071 
SectionLength 1 1 double
        13.2426 
SectionMinSize 1 1 double
        1.86226 
SectionMaxSize 1 1 double
        2.41882 
SectionShapeFactor 1 1 double
       0.769906 
