# vtk DataFile Version 4.2
vtk output
ASCII
DATASET POLYDATA
POINTS 379 double
 23.08599706485 27.245492795434 35.504361564263  23.08244527223 27.238582090419  35.49345752756 23.075081337056 27.224543835097 35.471680190525 
23.063812398202 27.203862270688 35.440649411228 23.059422425583 27.196092448343 35.429383083076 23.044875405838 27.168410464709 35.386505801898 
23.037779858425 27.155886995764 35.368396093554 23.025979787804 27.133334508606 35.333335359861 23.017421285895 27.118386478061  35.31194308062 
23.007275151797 27.098950209057  35.28166819069 22.997727462687 27.082245215322 35.257719525063 22.988507163725 27.064492360244 35.229948958101 
22.978441219973 27.046557701957 35.203775242236 22.970176617108 27.030407211285 35.178202018894 22.959813889869 27.011603025619 35.150280397821 
22.952257553146 26.996069716135 35.124701675117 22.942592232232 26.977665254559 35.096178753749 22.935088106762 26.961155002386 35.067670421322 
22.927403568812 26.945715157541  35.04268051443 22.918534156878 26.922786854483  34.99920401018  22.91620846096 26.917538862596 34.989993061666 
22.914638025399 26.911428662082 34.976420599392 22.908913536331 26.891705843292 34.934251882947 22.906777623609 26.869962025461 34.877306495046 
22.906587564274 26.868727180384 34.874244721386 22.906655833431 26.866237667082 34.866941509144 22.906187057778 26.846812889308 34.812465058348 
22.907939925749 26.840821695998  34.79091117362 22.910146287694 26.827566384431 34.747410531187 22.915240824427 26.818670533677 34.709166684066 
 22.91848390819 26.810919555022 34.678839293677  22.92761177662  26.80041603141 34.625889143768 22.929848306223 26.796948619649 34.610354476724 
22.939770440052 26.788162312844 34.560334975168 22.943202417405 26.785053899399 34.542835113811 22.944589126555 26.784256652486 34.537078407123 
22.956793061384  26.77383156205 34.476649736028 22.962946548667 26.770011861064  34.45029676549 22.970621251633 26.763566218715 34.412611192668 
22.980834802672 26.757102750282  34.36851665048 22.984840245621 26.753995060398  34.34958276337 22.998902440397  26.74531556185 34.289501529225 
22.999368098953 26.744980836638 34.287376445814  23.00132581261 26.743840591522 34.279207142149  23.01424261503 26.736366825931 34.225448576871 
 23.01773241157 26.734732370322 34.212026689241 23.029674420381 26.728373348026 34.163902893822 23.037374839023 26.724976094066  34.13488630299 
23.045685803539 26.721020759637 34.102741901001 23.058025419758 26.716064538662  34.05764130863 23.062372987508 26.714286713815 34.041660610225 
23.079378177515 26.708391441648 33.982185971304 23.079713683036 26.708278399622 33.981021927034 23.079801681288 26.708253866645 33.980731272851 
23.098079548299 26.703364279603 33.920950742769 23.103008587058 26.702283051373 33.905509589788 23.117451906376 26.699583060365  33.86160472025 
 23.12799239192 26.698064720607 33.830858838016 23.137714302358  26.69695713363   33.8033396416 23.154963619319 26.695740537163 33.756657667368 
23.159106180445 26.695571637934 33.745799794594 23.173760106093  26.69559025378 33.709156098647 23.181821259923 26.695662236604 33.689175214481 
23.184617338539  26.69582997542 33.682653704736 23.206339840627  26.69752150819 33.633101325841 23.218021877551 26.698981220421 33.608028590985 
23.231711036541 26.700866985356 33.579150135258 23.255320012066 26.705050259524 33.532012196376 23.256184414437 26.705214838169 33.530319024734 
23.257004662323 26.705396008876 33.528783961654 23.282702212637 26.711503767888 33.481929208302 23.295056034306 26.714886912891 33.460684635111 
23.314025505857 26.720364526353 33.428873328556 23.335463337414 26.727363378412 33.395238864961 23.347736071447 26.731500657593 33.376357887107 
23.379274476966 26.743229940304 33.330981397815 23.382965045519 26.744648055657 33.325802090843 23.392811860534 26.748671428808 33.312669878667 
23.420803186483 26.760128442801 33.275396120439 23.431842172584 26.764839537951 33.261248685663 23.461275874818 26.777764991344  33.22456982028 
 23.48831141371 26.790045326318 33.192048334029 23.509169346771 26.799816162722 33.167807584349 23.538090623695 26.813767223626 33.135350238404 
23.557546739008 26.823376437133 33.114156948427 23.585168206111  26.83746233251 33.085340935107 23.604828588465 26.847700139642 33.065436978985 
23.630267679007 26.861379643928 33.040921895734 23.651539082595 26.872977844887 33.020880962466 23.674891107082 26.886133023814 33.000090256451 
23.698400989737   26.8995134418 32.979549526068 23.720177511864 26.912301130248 32.961651435106 23.745936096863 26.927536074396 32.940792465698 
23.766225792012 26.939867949873 32.925311888221 23.790807585474 26.954894693506 32.906803416598 23.813242309316 26.968966675742 32.890936422263 
23.829670828491 26.979384485142 32.879641536881 23.854498930965  26.99547965097 32.863577188136 23.867176096019 27.003754383388 32.855536876668 
23.888803473922 27.018233751288 32.842858801048  23.90926020767 27.032029241525 32.831153053011 23.918955548849 27.038710042698 32.826013479804 
23.955831922716 27.064285255822 32.806936851111 23.984385708595 27.084583211028 32.793583119717 24.005427202217 27.099669054264 32.784109743859 
24.050776015072 27.133054429681 32.766191515492 24.057953831091 27.138387014428 32.763493915143 24.096882251373 27.168237000456  32.75152532871 
24.113626317275 27.181103710685 32.746456134958 24.116626584745 27.183489154489  32.74577682736 24.170777008392 27.226865244807 32.734439774981 
24.181033699179 27.235338091686 32.733028507072  24.22481270918 27.271610691171 32.727313108519 24.246538434025 27.290120330954 32.725935143286 
24.269596840811 27.309881489882 32.724805313902 24.301151954451 27.337600169975 32.725195283121 24.303287154976 27.339491011808 32.725265321917 
24.335097845765 27.368248167968 32.727990411143 24.347780296656  27.37981943222 32.729381153429 24.373271828157 27.403622999264 32.733739346773 
24.399400374709  27.42811837478 32.738484271978 24.412793590624 27.440940784029 32.741679510917 24.447496646086  27.47430703773 32.750366091513 
24.452706631423 27.479332566572 32.751716732737 24.454817750346 27.481378039285 32.752290082447 24.491688632544 27.517761038219 32.764190617821 
24.512550778753 27.538471820967 32.771281357947 24.530358102841 27.556438529314 32.778160576947 24.560903764712 27.587496003514 32.790643830013 
24.568605072158 27.595346885309 32.793849991118 24.573530942875 27.600408376707 32.796015154874 24.606280659771 27.634579266511 32.811898590797 
24.639397438826 27.669434420718 32.828823173787 24.644646043217 27.675034448287 32.831722994707 24.650700950829 27.681548240182 32.835221493478 
24.682783156792 27.716135524552 32.853969476673 24.713092584759 27.749037311406 32.872328120525  24.72218386408 27.759040452045 32.878219494079 
24.729779881898 27.767448086098 32.883284375395 24.761147844963 27.802192906722 32.904272326549 24.795197865327 27.840022112049 32.927380254338 
24.799912728796 27.845243899066 32.930533065745 24.808714718399 27.855010102053  32.93647008505 24.836643277533 27.886365546089  32.95636086504 
24.850492116501 27.901958159755 32.966351518263 24.869757696713 27.923695035768 32.980380124017 24.896654050545 27.954412589153 33.001028295687 
24.900905031193 27.959266725591 33.004289495135 24.927287117203 27.989877375846 33.025919251118 24.933022683879 27.996547117338 33.030664240706 
24.933798927706 27.997464361953 33.031348165403 24.965921914433 28.035271037939 33.059217314001 24.970058301822  28.04023019257 33.063066351541 
24.999492060755 28.075401130715 33.090118816301 25.007189216746 28.084772051946 33.097690160806 25.032412609463 28.115396172293 33.122260160068 
25.044281040612 28.130092378775 33.134642108484 25.064273456532 28.154780407726 33.155305347958 25.081609189759 28.176577474738 33.174339206759 
25.094966577912 28.193336689113 33.188902787974 25.119805295009 28.225038382752 33.217523267731 25.124781821754 28.231377160023 33.223220894634 
25.139106919679 28.249924224678  33.24048313595 25.154211003513 28.269478788317 33.258681006413 25.159637412839 28.276580275875 33.265437118666 
25.183828434337 28.308259268427 33.295614550545 25.200679622036 28.330547976355 33.317270340871  25.21422135365  28.34847400649 33.334715111338 
25.242800658977 28.386692034598 33.372636998258 25.246182223858 28.391221914633 33.377146460566 25.257359306499  28.40633868328 33.392464591224 
25.279013584469 28.435489873918 33.421752708707 25.284591688965 28.443017723417 33.429350430667 25.312385436935  28.48117380608 33.469062077567 
25.321478202219 28.493585215637 33.481849220979 25.344921299283 28.526405921732 33.517170554106 25.353834126092 28.538604655496 33.529799009111 
25.374275630865 28.567435631494   33.5612068201 25.382179309113 28.578296217699 33.572528748977 25.402321030437 28.606379491063 33.602545185202 
25.407010722563 28.612656737231 33.608784834919 25.420967315924 28.631875799327 33.628895119204 25.433746628161 28.649382843253 33.647048814236 
 25.43835764683 28.655970547762 33.654374919057  25.46367931953 28.689322708546 33.686514411103 25.480585591718 28.713140890281 33.712414072174 
25.497551658189 28.734318807781 33.730599855227 25.514866402282  28.75773784799 33.754333094902 25.528957805745 28.777680226728 33.776178023872 
 25.55327091002 28.812478389938 33.814985896195 25.556826246795 28.817188565926  33.81957672398 25.559195449714 28.820291258638 33.822532615748 
25.585457852626 28.855933774808 33.858877966867 25.606918566073 28.885190846267 33.888954157237 25.612720497924 28.893397671648 33.897936570218 
 25.61954743946  28.90329313381 33.909189911782 25.642161883452  28.93253688691  33.93633872152 25.664545053701 28.963143739366 33.967971864316 
25.671565723445 28.972472852138 33.977117518753 25.681837628082  28.98904180586 33.998862827462 25.698547104588 29.013345248746 34.026645546279 
25.703925828597 29.022385306222 34.039074916606 25.722693646258 29.054831420113 34.085031121944    25.728391935 29.066523940662 34.104259310803 
25.739828184005 29.094886410013 34.156876261155 25.741165728137 29.098952844815 34.165176721203 25.741843022712 29.104510774894 34.179403618783 
25.748101455027 29.125226985212  34.22308119469 25.749781858432 29.138026463866 34.255542498544 25.751278937111 29.147861571959 34.279970216297 
25.750664110107 29.155096810676 34.302238254041 25.753288254181 29.168937699828 34.335319754338 25.752813977492 29.182050771033 34.374075323033 
25.752869381041 29.187860250089 34.390580255472  25.75192636197 29.191186908067 34.402472406527  25.75215434555 29.206659662152 34.446229639129 
25.748004000526 29.221061541484 34.497883314353  25.74793967535 29.223309740376  34.50448530409 25.746917735168 29.226260106138 34.515497046944 
25.742698825479 29.240040749182 34.565542634394  25.73803040042 29.245146394044 34.591860767139 25.733861989567 29.254947849656 34.630379850543 
25.723052123083 29.261955595472 34.677527022704 25.718409911413 29.266954595077 34.703473980851 25.706621055928 29.272734191135  34.74955423453 
 25.70007280299 29.277158464845 34.778627846022 25.689302046978 29.281075495959 34.816822434212  25.68016940704 29.285218676779 34.851562677617 
25.671350628426 29.287345981816 34.879741617959 25.658803222681 29.291113661631 34.921957494314 25.652694121308 29.292030879709 34.939883938397 
25.635786550447 29.294910027271 34.990473167707  25.63306462166  29.29509547498 34.997820838227 25.617933098291 29.296471889939 35.039657203925 
25.612641503922 29.297046059181 35.054553603175 25.611711525733 29.297149216179 35.057178033221 25.591481651787 29.298045282182 35.110405760921 
25.586759050849 29.298272806287 35.122884151258  25.56957899361 29.298179778239 35.165640716323 25.560557389935 29.298094901939 35.187989864045 
25.546636023709 29.297282288977 35.220524315281 25.533201196513 29.296469923404 35.251841062041 25.522626963505 29.295348469242 35.275108665178 
25.504991923878 29.293485978156 35.313935252774 25.497527476251 29.292380621585 35.329461307825 25.476110379147  29.28926969247 35.374182424616 
25.471391631113 29.288385949004 35.383467476745 25.446645514635 29.283972009674 35.432792259258 25.444367921722 29.283476451197 35.437076177276 
25.416720429211 29.277699462475  35.48976169429 25.416499446602 29.277653964632 35.490184741462 25.387784217084 29.270864674475 35.542643974368 
25.385424565786 29.270315336557  35.54697931309 25.358176098174 29.263036734583 35.594363576108 25.353027961164  29.26167858535  35.60336479044 
25.327695626258 29.254176840775 35.645311301483 25.319034074434 29.251632618938 35.659712969586 25.296337036422 29.244251672265 35.695406125966 
25.283271332384 29.240017485364 35.715995262871 25.264146607787 29.233273016713 35.744565925948 25.245808719907 29.226808887849 35.771969306919 
 25.23107859671 29.221223495984 35.792855467816 25.207002558754 29.212075467469 35.826939435559 25.197088854381 29.208067582738 35.840283528153 
25.167370814529 29.196008212954   35.8801557026 25.162046399831 29.193726834174 35.886953383341 25.127043673995 29.178636201783  35.93137539299 
25.125835271953 29.178089180235 35.932834357037   25.1128999226 29.172186704728 35.948317545053 25.088351065615 29.160989147547 35.977713837816 
25.085998164071 29.159903698986 35.980496360888 25.049539416192 29.142352180175 36.021514371468 25.044157658995 29.139738112701 36.027502526346 
25.009462423242 29.122240972588 36.064260059914 25.001461505296 29.118179797078 36.072661391852  24.96829023017 29.100779785753 36.105880819665 
24.958000179275 29.095352257349  36.11610021479 24.926172782328 29.078050271165 36.146235075503  24.91391591199 29.071356957689 36.157753500126 
24.883404866352 29.054216365067  36.18505427306 24.870153751232 29.046746339092 36.196837313791 24.840908926965 29.029810906048 36.221554922638 
24.827399873797 29.021968212605 36.232916242151 24.797080494106  29.00395170289 36.257227606527 24.786190887176 28.997469989705 36.265928285088 
24.746904714452 28.973525227149 36.295710747859 24.744651183779 28.972150840643 36.297416638573 24.738436634424  28.96828987926 36.301918061725 
24.701947475859 28.945504958241 36.328018964077 24.686705729592 28.935815822587 36.338429468583 24.657729670238  28.91738145065 36.358179688245 
 24.61517632093 28.889845451961 36.385855369388 24.613052061973 28.888456420134 36.387195574345 24.611091307047 28.887155538718  36.38837886868 
  24.5678530863 28.858397670566 36.414269081254  24.52795463993 28.831541740743 36.437244574397 24.523715375556 28.828655021523  36.43959052197 
24.518550383162 28.825099768317  36.44233942534 24.479624134903 28.798206419671 36.462773093812 24.450751592956 28.778069180611 36.477385507139 
24.436259163771 28.767842388067 36.484379195164 24.414243930679 28.752154691165 36.494566792881  24.39302908741 28.736972300252 36.504197677731 
24.380241384271 28.727734060039 36.509754433646 24.349667034662 28.705369567356  36.52224769408 24.313997651669 28.679045705696 36.536156905112 
24.306198561246 28.673210346893 36.538969923111  24.28923201742 28.660410368065 36.544787436165 24.262256941592 28.639986901486 36.553828110167 
24.250596926053 28.631095265246 36.557553851064 24.217926646337 28.605787867861 36.566864656909 24.189835289368   28.5838735267 36.574429540798 
24.173098795767 28.570610681092 36.578344876584 24.131580453243 28.537464547118 36.587356073408 24.127335429574 28.534023689047 36.588128881742 
24.106270792008 28.516827711004 36.591614854194  24.08042584845 28.495692192963 36.595785430945 24.075444374565 28.491586079779 36.596496590665 
24.032167515044 28.455352024127 36.601064905977 24.020600553481 28.445578975566 36.602032443535 23.982527744576  28.41285478247 36.603624003645 
23.966590884444 28.399019294295 36.603896287288 23.931514353412 28.368078298078  36.60309314315 23.913150901879  28.35171098985  36.60218875279 
23.879384335414 28.321160745068 36.599224606161  23.85992042625 28.303355567072 36.596956654129 23.825935096672 28.271840543722 36.591776333341 
23.806956678533 28.254060518067 36.588364651925 23.773627509718 28.222412384747 36.581159794388 23.754281255955 28.203844353366 36.576411692545 
23.725553614189 28.175926492032 36.568370401566 23.700932273746 28.151706509268 36.560640039532 23.681063855249  28.13191080237 36.553682377705 
23.648445363367 28.098708906858 36.540246410545 23.639215408893  28.08919184593  36.53609489176 23.599767971357 28.047304468608 36.514877095373 
 23.59912286937 28.046613352496 36.514512598741 23.595394647211   28.0424735718 36.511988853707 23.561154394742  28.00434956413 36.488512729521 
23.556214660599 27.998576974425  36.48434504541 23.525312765834 27.962308875444 36.457825878382 23.517855724868 27.953163521147 36.450299457474 
23.491448303801 27.920671765522 36.423343935549 23.483300207654 27.910200770949 36.413750236892 23.459779851071 27.879882033727  36.38579031426 
23.451781238402 27.869101041791 36.374934155481 23.430099572195  27.83969626556 36.344988123143 23.422880840037 27.829413496684 36.333606319846 
23.402285700447 27.800054189533  36.30106962316 23.396064932917 27.790701275407 36.289852628214 23.376141011547 27.760896871069 36.254359869662 
 23.37104757371 27.752828054712 36.243998598093 23.351488869817 27.722259799188 36.205402874873 23.347493301498  27.71561514077 36.196372362987 
23.328130612469 27.684183505004  36.15481225749  23.32510492662 27.678939263067 36.147364998976 23.305766946994 27.646526461615 36.102932056605 
23.303585604568 27.642599787171 36.097145076578 23.284145666182 27.609118093605 36.049905176571 23.282686504182 27.606406224521 36.045789996174 
23.262984896227 27.571659695632 35.995581732545 23.262158898794 27.570083049857 35.993133273365 23.241944256869 27.533763757859 35.939703936699 
23.241709807603 27.533307275254 35.938983270369 23.232754396086 27.517011983096 35.914725157283 23.221127652031 27.495862310245 35.883249318155 
23.220758243868 27.495234731224 35.882376444983 23.199976009283 27.456878857286 35.824533861086 23.198944128824 27.455118557428 35.822074829823 
23.178602109345 27.417319618277 35.764725411242 23.177361272214 27.415218579863 35.761813471053 23.170702243826  27.40314386056 35.743896242434 
23.157324821626  27.37885440537 35.707809314881 23.154297512944 27.372879263682 35.698272153064 23.138673913591 27.344682403957  35.65661581426 
23.122240003734 27.313384139129 35.608103423107 23.120484237084  27.30990377537 35.602529339979 23.118717961818 27.306341323104  35.59674639623 
23.101465900514 27.274113795754 35.547620597044 
POLYGONS 1 380
379 0 1 2 3 4 5 6 7 8 9 10 11 12 13 14 15 16 17 18 19 20 21 22 23 24 25 26 27 28 29 30 31 32 33 34 35 36 37 38 39 40 41 42 43 44 45 46 47 48 49 50 51 52 53 54 55 56 57 58 59 60 61 62 63 64 65 66 67 68 69 70 71 72 73 74 75 76 77 78 79 80 81 82 83 84 85 86 87 88 89 90 91 92 93 94 95 96 97 98 99 100 101 102 103 104 105 106 107 108 109 110 111 112 113 114 115 116 117 118 119 120 121 122 123 124 125 126 127 128 129 130 131 132 133 134 135 136 137 138 139 140 141 142 143 144 145 146 147 148 149 150 151 152 153 154 155 156 157 158 159 160 161 162 163 164 165 166 167 168 169 170 171 172 173 174 175 176 177 178 179 180 181 182 183 184 185 186 187 188 189 190 191 192 193 194 195 196 197 198 199 200 201 202 203 204 205 206 207 208 209 210 211 212 213 214 215 216 217 218 219 220 221 222 223 224 225 226 227 228 229 230 231 232 233 234 235 236 237 238 239 240 241 242 243 244 245 246 247 248 249 250 251 252 253 254 255 256 257 258 259 260 261 262 263 264 265 266 267 268 269 270 271 272 273 274 275 276 277 278 279 280 281 282 283 284 285 286 287 288 289 290 291 292 293 294 295 296 297 298 299 300 301 302 303 304 305 306 307 308 309 310 311 312 313 314 315 316 317 318 319 320 321 322 323 324 325 326 327 328 329 330 331 332 333 334 335 336 337 338 339 340 341 342 343 344 345 346 347 348 349 350 351 352 353 354 355 356 357 358 359 360 361 362 363 364 365 366 367 368 369 370 371 372 373 374 375 376 377 378 

CELL_DATA 1
FIELD FieldData 6
ClosedSection 1 1 int
1 
SectionArea 1 1 double
        11.0712 
SectionLength 1 1 double
        12.0051 
SectionMinSize 1 1 double
        1.63111 
SectionMaxSize 1 1 double
         2.0617 
SectionShapeFactor 1 1 double
       0.791146 
