# vtk DataFile Version 4.2
vtk output
ASCII
DATASET POLYDATA
POINTS 782 double
13.564893409442 15.154495436516 17.468325020491 13.544081236406 15.186108866345 17.489054439847 13.534440099074  15.20079718023    17.498701606 
13.531736582805  15.20472981417 17.501217135706 13.500767638109 15.250788727132 17.531061985121  13.48841462264 15.268313693362 17.542103529491 
13.463150502383 15.304992054992 17.565537831485 13.443298463826 15.332261884373 17.582371645177 13.417091089878 15.368853086808 17.605196988983 
13.404599571488 15.385743546591 17.615515746248 13.371372097753 15.431337892967 17.643641832525 13.368929964362 15.434605979355 17.645624490408 
13.360177444256 15.446470341228 17.652884766555   13.3367108043 15.478399253376 17.672471761224 13.329895960348 15.487720984926 17.678210257254 
 13.30782604633 15.517410966988  17.69628655803 13.281435617591 15.552979054088 17.717968647777 13.279570549341 15.555474114807  17.71948200612 
13.278270353735 15.557206062028 17.720529439389 13.249313052512 15.596574932858 17.744668088553 13.221947173022 15.633874737373 17.767576460341 
13.216109339649 15.642000362034 17.772635192145 13.208845391042 15.652174573549 17.778994497166 13.182454471975 15.688472486222 17.801419832333 
 13.16152703397 15.717520087355 17.819471728872 13.150364287745 15.733378663459 17.829472007119 13.136273214716 15.753549598481 17.842250689633 
13.120126777679 15.776218464476 17.856440714617 13.109141532792 15.791789179101 17.866245616004 13.092329074481 15.816191722737 17.881834557139 
13.067717512484 15.852083608091   17.9048274879 13.065609559471 15.855256642505 17.906897596978 13.057152411812 15.868035387514 17.915252293741 
13.038499254511 15.896032606395  17.93348827318 13.034684837067  15.90171508862 17.937173860787 13.011375513349  15.93808716577 17.961374119573 
13.001411631409 15.953362001518 17.971440829868  12.98411043638 15.981142340758 17.990201410717 12.967540292035 16.007843930726 18.008266150023 
12.959045336273 16.022064877982 18.018069252654 12.937878382006 16.057749124394 18.042750203273 12.936080685821 16.060738425326 18.044804225714 
12.935360401301 16.061941206532  18.04563236289 12.913715368329 16.099471876036 18.071930732299 12.906777803649 16.111552628574 18.080412328459 
12.891904499867 16.138628150668 18.099793749148 12.880359048743 16.159808434513 18.115004515621 12.870557248253 16.178651574862 18.128795846605 
12.854663129883 16.209490678541 18.151448511479  12.84984592616 16.219374136798  18.15886088431 12.831264339166 16.258215641067 18.188184036779 
  12.8312046661 16.258350455401  18.18828847285 12.814401483808 16.296092796274 18.217472557636 12.810821699342 16.304385877463 18.223947104488 
12.798915830922 16.332987486201 18.246519652116 12.794629241257  16.34327936382  18.25464071648 12.781668831576   16.3765713872  18.28141012829 
12.778761699145 16.383983937618 18.287358565974 12.764259648735 16.424445672745 18.320582031804 12.763092996229 16.427655537196 18.323208748729 
12.748037480027 16.472528573027 18.360621050794 12.747995543916 16.472655069358 18.360726794002 12.734049003731 16.518525517415   18.3997667708 
12.733949388173 16.518862937755 18.400055586834 12.722222161171  16.56067250891 18.436182368072  12.71794970356 16.576720082775 18.450174888622 
 12.71061956514 16.604694825971 18.474632131076 12.705346043816 16.627682663574 18.495143058686 12.698902885515 16.654012863563 18.518414040775 
12.691788256189 16.687522057579 18.548628394634 12.688434441013 16.702583966758 18.562123353153 12.681103324409 16.741536498531 18.597763768723 
12.679416582386 16.750034075269 18.605490578988 12.672450684529 16.791869507635 18.644269375795 12.671710445131 16.796031138773 18.648100861451 
12.665153528671 16.840425014441 18.689711629182 12.664996355556 16.841420525569 18.690639140098 12.661427966719 16.870226524466 18.718017675043 
12.659391899488 16.886531226044 18.733505420149 12.659343547955 16.887078589492 18.734036387371 12.655446081223 16.931404090845 18.777044070909 
12.655420888093 16.931870655005 18.777505494058 12.654812408221 16.946852522451 18.792432844325 12.653596358246 16.975766294892 18.821218388662 
 12.65356460143 16.976650119057 18.822101279285 12.653645638909 17.019707312422 18.866010838412 12.653665560702  17.02210190599 18.868461336352 
12.656128178614 17.064231472657  18.91273920782 12.656328876187 17.067206318441  18.91588053259 12.662210214701 17.110172131445 18.962895614999 
12.662573907538 17.112472583859  18.96543978088 12.673054161838 17.156536764125 19.016109939213 12.673237771854 17.157207919799 19.016894937651 
12.678933182825 17.172317674392 19.035428900005 12.689476730051 17.200621922265 19.070078400731 12.690009851886 17.201785550938 19.071557850902 
12.711516071127 17.241872438234 19.124256457029 12.713191791368 17.244524982803 19.127882846654 12.739205932212 17.279430529947 19.177788845652 
12.742006984086 17.282813860584 19.182780301837 12.771849469021 17.312881783923 19.229869099653 12.775458133822 17.316301270456  19.23534275392 
12.808025490847 17.342009755837 19.279492988742  12.81189457714 17.345001743531 19.284674736351 12.846756756956 17.367195309864 19.326509614993 
12.850417810276  17.36959797299 19.330976262063 12.886893763554 17.389338389361  19.37120190097 12.890361574919 17.391396140877  19.37521060183 
12.927276856007 17.409480355304 19.413991241848 12.931131843742 17.411694478809 19.418372759156 12.967658575789 17.428918311486 19.456062610012 
12.972694501935  17.43177100419 19.461745911944 13.007671048424 17.448118257025 19.497687878875 13.014815958805 17.452296719904 19.505884834638 
13.047014569079 17.467877489145 19.539514027163 13.057086298509  17.47405332988 19.551359843512 13.084632201859 17.488043388931 19.580802718188 
13.097276262309 17.496546136153 19.596437620153 13.119295823428 17.509581793262 19.621860648769 13.132798041559  17.51986884848 19.639786566436 
13.151320490266 17.533224583323 19.663607169055 13.161295619788 17.541922404747 19.677969003291 13.183260763899 17.561764611729 19.710296252007 
13.190451214813 17.568069066205 19.720684192876 13.195979643022 17.572783920206 19.728536180777 13.219767336877 17.597359539108 19.766690690061 
13.245954712132 17.625415563897   19.8097142131 13.249787500987  17.62913614378 19.815618203519 13.253000377423 17.632630248425 19.820949615258 
  13.2764029347 17.662732558335 19.864522100192 13.294690651553 17.687986685199 19.900334843125 13.301592206471 17.699328533632 19.915695356806 
13.321951184363  17.73277778918 19.960999166409 13.325847214638 17.739035980099 19.969523243912 13.327249354612 17.741320816755 19.972624160263 
13.346939296829 17.780242433708 20.023134038586 13.358551634018 17.804693663986 20.054447637818 13.365391224228 17.820553820867 20.074377044566 
13.373315590033  17.83991119366 20.098467476147  13.38195413418 17.860223823479 20.123924922482  13.39051828733 17.881209564721 20.150027083173 
13.397316653076 17.898411392287 20.171300594455 13.403689553864 17.914727624675 20.191437272641 13.411980861231 17.935404503695 20.217074314626 
13.418355514852 17.951206236552 20.236687808787 13.426674425214 17.972022040491  20.26248160355 13.439852173351 18.003449145029 20.301765189289 
13.442453900789 18.009576339991 20.309442060962 13.454432442067 18.035564031689 20.342522888806 13.460184650941  18.04794325203  20.35830641851 
13.461572511069 18.050553563425 20.361731040209 13.481066378891 18.086456308119 20.409057290912 13.488377367771 18.098166627285 20.425018972495 
13.505531383195 18.124684056834 20.461493527627 13.525970336027 18.151849831214 20.500440091787 13.533679198823 18.161710209821 20.514736541622 
13.544196347733 18.173272387184  20.53231536256 13.566830250091 18.196882377178 20.568849862808 13.604196424944  18.23031311035  20.62351354383 
13.607095288568 18.232835230719 20.627681573954  13.60833227946 18.233763979931   20.6293098924 13.615265955909 18.238191232675 20.637643818413 
13.652524558516 18.261829668578 20.682272194437 13.662444683937 18.266834101729 20.692841026538 13.693057123664 18.281346846109 20.724507454768 
13.713692309762 18.289343429996 20.744033462453 13.733528163939 18.296397081074 20.762158052228   13.7636810292 18.305281189231  20.78783682529 
 13.77275290187 18.307730713532 20.795335047864 13.799239756306 18.313689993557 20.816012480104 13.811570271807 18.316361774558 20.825534130579 
13.815400072773 18.317055871787 20.828353219172 13.851101996052 18.322797463485  20.85389059571 13.861241324434   18.3242413047 20.860952926497 
13.895922819643 18.328358133367 20.884272339906 13.908251478502 18.329674848876  20.89241248239 13.945502249549 18.332681838772 20.916018084072 
13.960365119706 18.333789001113 20.925342251611 13.997503660675 18.335792052382 20.947863192463 14.016698412687 18.336863991526 20.959540323524 
14.049669728719 18.338210152342 20.979094005613 14.074695372729 18.339563213017 20.994273018934 14.102172198037 18.340689591179 21.010572819156 
14.134445781943  18.34285467224 21.030576013585 14.154864729451 18.344026675157 21.043030176861 14.192177383209 18.347658910732 21.067306878396 
14.207973713515 18.349137221999 21.077523920282 14.244522018482 18.354085000655 21.102719336523 14.261905934238 18.356406844601 21.114671219703 
14.292872074262 18.361912754798 21.137356911991 14.314933182641 18.365691484905 21.153372281503  14.33890501923 18.371060065414 21.172061009041 
14.365963346895 18.376969331682 21.193002632381 14.383276641419 18.381776734204 21.207447754248 14.416690913027 18.390694400166 21.234959240618 
14.426993323076 18.393993803214 21.244001872868 14.467493834873 18.406299484957 21.278872686407 14.471387439825 18.407660205476 21.282406088135 
14.503851014197 18.418313744368 21.311161740514 14.516706237464 18.422491548652 21.322507018491 14.518233411588 18.422949115336 21.323815339489 
14.563397745584 18.437905044394  21.36395801265 14.568820594552 18.439544281439 21.368618468009 14.611875915023 18.453430467174 21.406508300652 
[...]
CELL_DATA 1
FIELD FieldData 6
ClosedSection 1 1 int
1 
SectionArea 1 1 double
        43.2059 
SectionLength 1 1 double
        23.8836 
SectionMinSize 1 1 double
        3.26193 
SectionMaxSize 1 1 double
        3.96405 
SectionShapeFactor 1 1 double
        0.82288 
